

 Parallel Execution: Process Information
 ==============================================================================
 Rank   Node Name                              NodeID   MyNodeRank  NodeMaster
    0   u-0-4.local                               0          0          0
    1   u-0-4.local                               0          1         -1
    2   u-0-4.local                               1          0          1
    3   u-0-4.local                               1          1         -1
    4   u-0-4.local                               2          0          2
    5   u-0-4.local                               2          1         -1
    6   u-0-4.local                               3          0          3
    7   u-0-4.local                               3          1         -1
 ==============================================================================


May use up to 31228MB of RAM as shared memory on node 0
May use up to 31250MB of RAM as shared memory on node 1
May use up to 31250MB of RAM as shared memory on node 2
May use up to 31250MB of RAM as shared memory on node 3

 *******************************************************************************
 *                                                                             *
 *  --------------------------------                                           *
 *   Amsterdam Modeling Suite (AMS)              2024.103                      *
 *  --------------------------------                                           *
 *                                               r241004 2024-10-04 d82be5f7   *
 *                                                                             *
 *                                                                             *
 *                              =================                              *
 *                              |               |                              *
 *                              |     A M S     |                              *
 *                              |               |                              *
 *                              =================                              *
 *                                                                             *
 *                                                                             *
 *   Online information and documentation:  https://www.scm.com/support/       *
 *   E-mail:  support@scm.com   info@scm.com                                   *
 *                                                                             *
 *   Scientific publications using AMS results must be properly referenced     *
 *   See the User Manuals (or the web site) for recommended citations          *
 *   The terms and conditions of the End User License Agreement apply to       *
 *   the use of AMS, https://www.scm.com/license-terms/                        *
 *                                                                             *
 **********************  x86_64_linux_intel / intelmpi  ************************
 
 Licensed to: Dr. Val?rie Vallet / Laboratoire PhLAM UMR 8523 / Villeneuve d'Ascq Cedex / FRANCE 2024-12-20 16:14:47
 SCM User ID: u10325
  
 AMS 2024.103  RunTime: Apr26-2025 09:41:49  ShM Nodes: 4  Procs: 8

 AMS jobname: pao_oh2_cl_3h2o.pbe0.tz2zp.opt-freq-solvation
 AMS jobid  : 1359546975

 Start   directory: /state/partition2/shaaban/1050647.phlam-s-sakura/
 Results directory: /home/shaaban/ams/PhD/geometries-exafs/pao_oh2_cl_3h2o/pao_oh2_cl_3h2o.pbe0.tz2zp.opt-freq-solvation.results/
 Scratch directory: /state/partition2/shaaban/1050647.phlam-s-sakura/amstmp_pao_oh2_cl_3h2o.pbe0.tz2zp.opt-freq-solvation_kid0.1359546975/


 Communication costs MPI_COMM_WORLD:      2.774 usec per message,   0.0088 usec per 8-byte item
 Communication costs for intra-node:      0.670 usec per message,   0.0024 usec per 8-byte item

 RNG seed: -1245746139 -1958247981 1343267951 268002316 -1799776267 1352489024 1434805702 -1937571371



                      ************************************************************************
                      *  ADF 2024.103  RunTime: Apr26-2025 09:41:50  ShM Nodes: 4  Procs: 8  *
                      ************************************************************************
  

       ***************************
       *  GEOMETRY OPTIMIZATION  *
       ***************************

Optimization Method                    Quasi Newton
Optimization Coordinates               Delocalized Coordinates
Optimize lattice                       F
 
 ------------------------------------------------------
 Convergence criteria (Hartree,Angstrom)
 ------------------------------------------------------
 Maximum gradient               0.000100000000
 Maximum rms gradient           0.000066666667
 Maximum step allowed           0.001000000000
 Maximum rms step allowed       0.000666666667
 Maximum energy change allowe   0.000016000000
 Maximum stress energy allowe   0.000500000000
 
Initial model Hessian                  Automatic Hessian
 
------------------------------------
Quasi-Newton Optimizer Parameters
------------------------------------
Hessian Update Method                  BFGS
Maximum number of steps                  250
First GDIIS cycle                          0
Maximum GDIIS vectors                      0
Trust radius (bohr)                        0.200000
Trust radius varies                        T
Constraints converged at all steps         T
Use projector                              T
 
 Rigid motions settings for: old optimizer
 Atomic rotations (x,y,z):     T T T
 Atomic translations (x,y,z):  T T T
 Tolerance:                   1.000000000000000E-006
 
--------
Geometry
--------
Formula: H8ClO6Pa
Atoms
  Index Symbol   x (angstrom)   y (angstrom)   z (angstrom)
      1     Pa    -0.29671470    -0.23881200     0.49561010       adf.R=2.200
      2      O     1.70046624     1.16624776     1.05283955       adf.R=1.517
      3      O    -0.48581174     0.72125489    -1.27661655       adf.R=1.517
      4     Cl    -1.20868529     1.85671964     1.91166506       adf.R=1.725
      5      H    -0.72830361     1.49947305    -1.79188361       adf.R=1.350
      6      O    -1.08026255    -2.27212234    -0.70840544       adf.R=1.517
      7      H    -1.25386872    -2.33611273    -1.65386662       adf.R=1.350
      8      H    -0.95948691    -3.17084121    -0.38341459       adf.R=1.350
      9      H     1.64098020     1.81551551     1.76221509       adf.R=1.350
     10      O    -0.02914850    -1.33844380     1.92357207       adf.R=1.517
     11      O     1.79569850    -1.21706191    -0.42739466       adf.R=1.517
     12      H     2.11889061    -1.11489351    -1.32918571       adf.R=1.350
     13      H     2.59111072     0.79949565     1.06953426       adf.R=1.350
     14      O    -2.78823304    -0.49519777     0.62271688       adf.R=1.517
     15      H    -3.21656654    -1.35021529     0.50631849       adf.R=1.350
     16      H    -3.28629111    -0.01029104     1.28979753       adf.R=1.350
 
Total System Charge             0.00000
Bonding info available!
 
 
----------------
ADF Engine Input
----------------
 
 Basis
 Type TZ2P
 Core None
 End
 XC
 Hybrid PBE0
 End
 Solvation
 Surf Delley
 Solv name=Water cav0=0.0 cav1=0.0067639
 Charged method=CONJ
 C-Mat POT
 SCF VAR ALL
 CSMRSP
 End
 NumericalQuality Good
 MBPT
 SigmaFunctionalParametrization W1
 End
 

 Title: *** (NO TITLE) ***

 Using automatic Hessian for delocalized coordinates.
 *** GO1_GOStep1 ***

 SOLVATION
-------------------------------------------

  The Delley construction of COSMO surface surface is calculated

       Division Level for Surface Triangles (NDIV)                  3
       Final Division Level for Triangles (NFDIV)                   1
       Radius of the Solvent (RSOL)                           1.93000 angstr
  Dielectric Constant (EPSL)                                 78.39000

       COSMO equation is solved iteratively-               conjugate-gradient

       Maximun of Iterations for Charges (NCIX)                  1000
       Criterion for Charge convergence (CCNV)                1.0E-08

  COSMO charges included variationally in SCF

       COSMO included at every SCF cycle

  Geometry-dependent empirical factor                         0.00000

  C-Matrix calculated in cspmtx

  In cspmtx, C-Matrix calculated using fitted potential

-------------------------------------------



 -------------------------------------------
  COSMO surface
  Area             =          632.845
  Volume           =         1132.475
  Number of Points =         1556
 -------------------------------------------
 
 RIHartreeFock Dependency: number of modified vectors:           9
 cosmo_calcen: 0.5 (esolb+esolc) (Hartrees) =   -0.071153

 Solvation energy (screening term,uncorrected) =    -44.648984 kcal/mol

 Solvation energy (dispersion and cavitation terms) =      1.183372 kcal/mol
 Solvation Energy Contributions (Hartrees)
          esola   esolb+esolc
     0.07115268   -0.14230536
 esol last cycle   -0.07115268
  
 Hartree-Fock exchange energy:   -546.246768857500     
 cosmo_calcen: 0.5 (esolb+esolc) (Hartrees) =   -0.071153

 Solvation energy (screening term,uncorrected) =    -44.648970 kcal/mol

 Solvation energy (dispersion and cavitation terms) =      1.183372 kcal/mol
 Solvation Energy Contributions (Hartrees)
          esola   esolb+esolc
     0.07115265   -0.14230531
 esol last cycle   -0.07115265

 Energy gradients wrt nuclear displacements
 ==========================================

     Atom      Cartesian (a.u./angstrom)
                 X         Y         Z
 ----------------------------------------
     1 Pa   -0.080041  0.034240  0.043966
     2 O    -0.001007 -0.010239 -0.006751
     3 O     0.008022 -0.013878  0.016624
     4 Cl    0.003767 -0.009030 -0.006361
     5 H    -0.000114  0.001718 -0.001426
     6 O     0.009516  0.006025  0.002855
     7 H    -0.001010  0.000074 -0.001733
     8 H    -0.001174 -0.001816  0.000695
     9 H    -0.000691 -0.000395  0.000079
    10 O     0.002423  0.011466 -0.022898
    11 O     0.038457 -0.018685 -0.020578
    12 H     0.011668 -0.005608 -0.007669
    13 H     0.003125  0.005222  0.003649
    14 O     0.006871  0.000785 -0.000413
    15 H     0.000070 -0.000367 -0.000291
    16 H     0.000117  0.000488  0.000252
 ----------------------------------------
 Mulliken charges used for AMS results%charges...
 
----------------------------------------------------------------------
Geometry Convergence after Step   1       (Hartree/Angstrom,Angstrom)
----------------------------------------------------------------------
current energy                               -4.25412689 Hartree
energy change                      -4.25412689     0.00001600    F
constrained gradient max            0.08003516     0.00010000    F
constrained gradient rms            0.01690726     0.00006667    F
gradient max                        0.08003516
gradient rms                        0.01690726
cart. step max                      0.03794397     0.00100000    F
cart. step rms                      0.01408147     0.00066667    F
 
 
--------
Geometry
--------
Formula: H8ClO6Pa
Atoms
  Index Symbol   x (angstrom)   y (angstrom)   z (angstrom)
      1     Pa    -0.27546380    -0.24925331     0.48481964       adf.R=2.200
      2      O     1.71168478     1.16792277     1.05393002       adf.R=1.517
      3      O    -0.50047340     0.73040783    -1.28351033       adf.R=1.517
      4     Cl    -1.18889182     1.85574395     1.89864802       adf.R=1.725
      5      H    -0.75784885     1.51070340    -1.78614414       adf.R=1.350
      6      O    -1.09222737    -2.28152556    -0.70699780       adf.R=1.517
      7      H    -1.26522984    -2.34850208    -1.65137738       adf.R=1.350
      8      H    -0.96950536    -3.17856320    -0.38082383       adf.R=1.350
      9      H     1.65771589     1.81295617     1.76771936       adf.R=1.350
     10      O    -0.04312720    -1.33456614     1.94355669       adf.R=1.517
     11      O     1.79642479    -1.20948079    -0.40445875       adf.R=1.517
     12      H     2.09004658    -1.07694954    -1.30660910       adf.R=1.350
     13      H     2.59585829     0.78683935     1.06400905       adf.R=1.350
     14      O    -2.77193640    -0.50153878     0.60716944       adf.R=1.517
     15      H    -3.20172460    -1.35591931     0.49299626       adf.R=1.350
     16      H    -3.27152816    -0.01355984     1.27057471       adf.R=1.350
 
Total System Charge             0.00000
Bonding info available!
 
 *** GO1_GOStep2 ***

 SOLVATION
-------------------------------------------

  The Delley construction of COSMO surface surface is calculated

       Division Level for Surface Triangles (NDIV)                  3
       Final Division Level for Triangles (NFDIV)                   1
       Radius of the Solvent (RSOL)                           1.93000 angstr
  Dielectric Constant (EPSL)                                 78.39000

       COSMO equation is solved iteratively-               conjugate-gradient

       Maximun of Iterations for Charges (NCIX)                  1000
       Criterion for Charge convergence (CCNV)                1.0E-08

  COSMO charges included variationally in SCF

       COSMO included at every SCF cycle

  Geometry-dependent empirical factor                         0.00000

  C-Matrix calculated in cspmtx

  In cspmtx, C-Matrix calculated using fitted potential

-------------------------------------------



 -------------------------------------------
  COSMO surface
  Area             =          630.727
  Volume           =         1130.519
  Number of Points =         1550
 -------------------------------------------
 
 RIHartreeFock Dependency: number of modified vectors:           9
 cosmo_calcen: 0.5 (esolb+esolc) (Hartrees) =   -0.070282

 Solvation energy (screening term,uncorrected) =    -44.102332 kcal/mol

 Solvation energy (dispersion and cavitation terms) =      1.179411 kcal/mol
 Solvation Energy Contributions (Hartrees)
          esola   esolb+esolc
     0.07028153   -0.14056306
 esol last cycle   -0.07028153
  
 Hartree-Fock exchange energy:   -546.242261596107     
 cosmo_calcen: 0.5 (esolb+esolc) (Hartrees) =   -0.070282

 Solvation energy (screening term,uncorrected) =    -44.102343 kcal/mol

 Solvation energy (dispersion and cavitation terms) =      1.179411 kcal/mol
 Solvation Energy Contributions (Hartrees)
          esola   esolb+esolc
     0.07028155   -0.14056310
 esol last cycle   -0.07028155

 Energy gradients wrt nuclear displacements
 ==========================================

     Atom      Cartesian (a.u./angstrom)
                 X         Y         Z
 ----------------------------------------
     1 Pa   -0.074577  0.035320  0.033106
     2 O     0.000739 -0.009511 -0.005649
     3 O     0.004789 -0.007901  0.010777
     4 Cl    0.003627 -0.007786 -0.005471
     5 H     0.000264  0.000292 -0.000626
     6 O     0.007698  0.003973  0.001641
     7 H    -0.000659  0.000088  0.000287
     8 H    -0.001452  0.000054 -0.000076
     9 H    -0.001342  0.000302  0.000323
    10 O     0.002734  0.003915 -0.010617
    11 O     0.043627 -0.017612 -0.028158
    12 H     0.006054 -0.005687  0.002656
    13 H     0.001898  0.004433  0.002639
    14 O     0.006713 -0.000063 -0.000654
    15 H    -0.000228 -0.000028 -0.000160
    16 H     0.000116  0.000210 -0.000019
 ----------------------------------------
 Mulliken charges used for AMS results%charges...

 dE(predicted):    -0.23051E-02, dE(actual):    -0.41613E-02, Trust radius:    0.200000, all in a.u.
 
----------------------------------------------------------------------
Geometry Convergence after Step   2       (Hartree/Angstrom,Angstrom)
----------------------------------------------------------------------
current energy                               -4.25828821 Hartree
energy change                      -0.00416132     0.00001600    F
constrained gradient max            0.07457296     0.00010000    F
constrained gradient rms            0.01561917     0.00006667    F
gradient max                        0.07457296
gradient rms                        0.01561917
cart. step max                      0.07501270     0.00100000    F
cart. step rms                      0.02043942     0.00066667    F
 
 
--------
Geometry
--------
Formula: H8ClO6Pa
Atoms
  Index Symbol   x (angstrom)   y (angstrom)   z (angstrom)
      1     Pa    -0.24483725    -0.26387177     0.47313107       adf.R=2.200
      2      O     1.72729240     1.17198451     1.06062945       adf.R=1.517
      3      O    -0.50239445     0.73132203    -1.30022128       adf.R=1.517
      4     Cl    -1.16673446     1.85422110     1.88711475       adf.R=1.725
      5      H    -0.77288361     1.51275368    -1.79226815       adf.R=1.350
      6      O    -1.10025792    -2.29590694    -0.70866414       adf.R=1.517
      7      H    -1.27812166    -2.36571472    -1.65168106       adf.R=1.350
      8      H    -0.98389303    -3.19180394    -0.37751303       adf.R=1.350
      9      H     1.68054882     1.81953620     1.77204663       adf.R=1.350
     10      O    -0.04756009    -1.34037354     1.96010062       adf.R=1.517
     11      O     1.77188669    -1.18535791    -0.37041688       adf.R=1.517
     12      H     2.01503388    -1.01326485    -1.27979874       adf.R=1.350
     13      H     2.60098848     0.76790097     1.06905883       adf.R=1.350
     14      O    -2.75111741    -0.50806189     0.59135593       adf.R=1.517
     15      H    -3.18269842    -1.36147562     0.47876934       adf.R=1.350
     16      H    -3.25147844    -0.01717241     1.25185853       adf.R=1.350
 
Total System Charge             0.00000
Bonding info available!
 
 *** GO1_GOStep3 ***

 SOLVATION
-------------------------------------------

  The Delley construction of COSMO surface surface is calculated

       Division Level for Surface Triangles (NDIV)                  3
       Final Division Level for Triangles (NFDIV)                   1
       Radius of the Solvent (RSOL)                           1.93000 angstr
  Dielectric Constant (EPSL)                                 78.39000

       COSMO equation is solved iteratively-               conjugate-gradient

       Maximun of Iterations for Charges (NCIX)                  1000
       Criterion for Charge convergence (CCNV)                1.0E-08

  COSMO charges included variationally in SCF

       COSMO included at every SCF cycle

  Geometry-dependent empirical factor                         0.00000

  C-Matrix calculated in cspmtx

  In cspmtx, C-Matrix calculated using fitted potential

-------------------------------------------



 -------------------------------------------
  COSMO surface
  Area             =          625.766
  Volume           =         1124.941
  Number of Points =         1539
 -------------------------------------------
 
 RIHartreeFock Dependency: number of modified vectors:           9
 cosmo_calcen: 0.5 (esolb+esolc) (Hartrees) =   -0.068907

 Solvation energy (screening term,uncorrected) =    -43.239575 kcal/mol

 Solvation energy (dispersion and cavitation terms) =      1.170134 kcal/mol
 Solvation Energy Contributions (Hartrees)
          esola   esolb+esolc
     0.06890664   -0.13781328
 esol last cycle   -0.06890664
  
 Hartree-Fock exchange energy:   -546.237136186138     
 cosmo_calcen: 0.5 (esolb+esolc) (Hartrees) =   -0.068907

 Solvation energy (screening term,uncorrected) =    -43.239586 kcal/mol

 Solvation energy (dispersion and cavitation terms) =      1.170134 kcal/mol
 Solvation Energy Contributions (Hartrees)
          esola   esolb+esolc
     0.06890666   -0.13781332
 esol last cycle   -0.06890666

 Energy gradients wrt nuclear displacements
 ==========================================

     Atom      Cartesian (a.u./angstrom)
                 X         Y         Z
 ----------------------------------------
     1 Pa   -0.061992  0.032604  0.020268
     2 O     0.002183 -0.007533 -0.003249
     3 O     0.001391 -0.001619  0.003811
     4 Cl    0.003298 -0.006298 -0.004362
     5 H     0.000567 -0.000604 -0.000294
     6 O     0.006008  0.002705  0.000828
     7 H    -0.000576  0.000456  0.000700
     8 H    -0.001436  0.000529  0.000179
     9 H    -0.002156  0.000800 -0.000285
    10 O     0.002873 -0.003678  0.001556
    11 O     0.041110 -0.014794 -0.024904
    12 H     0.001734 -0.004447  0.005796
    13 H     0.000928  0.002418  0.001064
    14 O     0.006495 -0.000902 -0.000845
    15 H    -0.000408  0.000259 -0.000103
    16 H    -0.000021  0.000105 -0.000160
 ----------------------------------------
 Mulliken charges used for AMS results%charges...

 dE(predicted):    -0.55145E-02, dE(actual):    -0.58657E-02, Trust radius:    0.400000, all in a.u.
 
----------------------------------------------------------------------
Geometry Convergence after Step   3       (Hartree/Angstrom,Angstrom)
----------------------------------------------------------------------
current energy                               -4.26415389 Hartree
energy change                      -0.00586568     0.00001600    F
constrained gradient max            0.06198822     0.00010000    F
constrained gradient rms            0.01306447     0.00006667    F
gradient max                        0.06198822
gradient rms                        0.01306447
cart. step max                      0.16608485     0.00100000    F
cart. step rms                      0.04013148     0.00066667    F
 
 
--------
Geometry
--------
Formula: H8ClO6Pa
Atoms
  Index Symbol   x (angstrom)   y (angstrom)   z (angstrom)
      1     Pa    -0.18421567    -0.29375388     0.45069572       adf.R=2.200
      2      O     1.75166990     1.18567276     1.08019309       adf.R=1.517
      3      O    -0.48901810     0.72030772    -1.33596536       adf.R=1.517
      4     Cl    -1.12819200     1.84932540     1.86812326       adf.R=1.725
      5      H    -0.77900362     1.50370864    -1.81131971       adf.R=1.350
      6      O    -1.10966029    -2.32556604    -0.71635620       adf.R=1.517
      7      H    -1.29725497    -2.40081592    -1.65682357       adf.R=1.350
      8      H    -1.00421595    -3.21963903    -0.37715119       adf.R=1.350
      9      H     1.71766120     1.83634586     1.78832053       adf.R=1.350
     10      O    -0.04527269    -1.35416124     1.97590201       adf.R=1.517
     11      O     1.69748619    -1.13734731    -0.31641903       adf.R=1.517
     12      H     1.84894903    -0.89643211    -1.23239771       adf.R=1.350
     13      H     2.60700754     0.74484150     1.08877567       adf.R=1.350
     14      O    -2.71281980    -0.51435956     0.56954735       adf.R=1.517
     15      H    -3.14918035    -1.36539861     0.46044035       adf.R=1.350
     16      H    -3.21016689    -0.01801328     1.22793665       adf.R=1.350
 
Total System Charge             0.00000
Bonding info available!
 
 *** GO1_GOStep4 ***

 SOLVATION
-------------------------------------------

  The Delley construction of COSMO surface surface is calculated

       Division Level for Surface Triangles (NDIV)                  3
       Final Division Level for Triangles (NFDIV)                   1
       Radius of the Solvent (RSOL)                           1.93000 angstr
  Dielectric Constant (EPSL)                                 78.39000

       COSMO equation is solved iteratively-               conjugate-gradient

       Maximun of Iterations for Charges (NCIX)                  1000
       Criterion for Charge convergence (CCNV)                1.0E-08

  COSMO charges included variationally in SCF

       COSMO included at every SCF cycle

  Geometry-dependent empirical factor                         0.00000

  C-Matrix calculated in cspmtx

  In cspmtx, C-Matrix calculated using fitted potential

-------------------------------------------



 -------------------------------------------
  COSMO surface
  Area             =          624.553
  Volume           =         1123.545
  Number of Points =         1546
 -------------------------------------------
 
 RIHartreeFock Dependency: number of modified vectors:           9
 cosmo_calcen: 0.5 (esolb+esolc) (Hartrees) =   -0.067004

 Solvation energy (screening term,uncorrected) =    -42.045475 kcal/mol

 Solvation energy (dispersion and cavitation terms) =      1.167865 kcal/mol
 Solvation Energy Contributions (Hartrees)
          esola   esolb+esolc
     0.06700372   -0.13400744
 esol last cycle   -0.06700372
  
 Hartree-Fock exchange energy:   -546.249171352427     
 cosmo_calcen: 0.5 (esolb+esolc) (Hartrees) =   -0.067004

 Solvation energy (screening term,uncorrected) =    -42.045481 kcal/mol

 Solvation energy (dispersion and cavitation terms) =      1.167865 kcal/mol
 Solvation Energy Contributions (Hartrees)
          esola   esolb+esolc
     0.06700373   -0.13400746
 esol last cycle   -0.06700373

 Energy gradients wrt nuclear displacements
 ==========================================

     Atom      Cartesian (a.u./angstrom)
                 X         Y         Z
 ----------------------------------------
     1 Pa   -0.010249  0.011370 -0.007010
     2 O     0.002628 -0.003123  0.001623
     3 O    -0.003521  0.004815 -0.002736
     4 Cl    0.003489 -0.005108 -0.003459
     5 H     0.000787 -0.001159 -0.000172
     6 O     0.003545  0.001317  0.000095
     7 H    -0.000582  0.000883  0.000929
     8 H    -0.001281  0.000938  0.000610
     9 H    -0.002805  0.001602 -0.001441
    10 O     0.000899 -0.007960  0.010334
    11 O     0.009582 -0.000776 -0.002282
    12 H    -0.007276 -0.000170  0.006816
    13 H    -0.001314 -0.001641 -0.001934
    14 O     0.006869 -0.001615 -0.000741
    15 H    -0.000467  0.000492 -0.000292
    16 H    -0.000305  0.000137 -0.000342
 ----------------------------------------
 Mulliken charges used for AMS results%charges...

 dE(predicted):    -0.72280E-02, dE(actual):    -0.58285E-02, Trust radius:    0.800000, all in a.u.
 
----------------------------------------------------------------------
Geometry Convergence after Step   4       (Hartree/Angstrom,Angstrom)
----------------------------------------------------------------------
current energy                               -4.26998239 Hartree
energy change                      -0.00582850     0.00001600    F
constrained gradient max            0.01136988     0.00010000    F
constrained gradient rms            0.00422544     0.00006667    F
gradient max                        0.01136988
gradient rms                        0.00422544
cart. step max                      0.02020423     0.00100000    F
cart. step rms                      0.00691856     0.00066667    F
 
 
--------
Geometry
--------
Formula: H8ClO6Pa
Atoms
  Index Symbol   x (angstrom)   y (angstrom)   z (angstrom)
      1     Pa    -0.18509635    -0.29592564     0.44835730       adf.R=2.200
      2      O     1.74624099     1.18959960     1.08491165       adf.R=1.517
      3      O    -0.48323581     0.71390185    -1.33980634       adf.R=1.517
      4     Cl    -1.13568240     1.84919412     1.86529506       adf.R=1.725
      5      H    -0.77197896     1.49794768    -1.81559888       adf.R=1.350
      6      O    -1.11399626    -2.32958746    -0.71713904       adf.R=1.517
      7      H    -1.29602965    -2.40658789    -1.65879643       adf.R=1.350
      8      H    -0.99787712    -3.22376282    -0.38112994       adf.R=1.350
      9      H     1.71246026     1.83026116     1.80213212       adf.R=1.350
     10      O    -0.04484211    -1.35147935     1.97153477       adf.R=1.517
     11      O     1.69194713    -1.14121914    -0.33266671       adf.R=1.517
     12      H     1.86915327    -0.89582669    -1.24549857       adf.R=1.350
     13      H     2.60397840     0.75316541     1.09420970       adf.R=1.350
     14      O    -2.71730218    -0.50697088     0.57670998       adf.R=1.517
     15      H    -3.15520881    -1.35782274     0.47185444       adf.R=1.350
     16      H    -3.20875683    -0.01017230     1.23913275       adf.R=1.350
 
Total System Charge             0.00000
Bonding info available!
 
 *** GO1_GOStep5 ***

 SOLVATION
-------------------------------------------

  The Delley construction of COSMO surface surface is calculated

       Division Level for Surface Triangles (NDIV)                  3
       Final Division Level for Triangles (NFDIV)                   1
       Radius of the Solvent (RSOL)                           1.93000 angstr
  Dielectric Constant (EPSL)                                 78.39000

       COSMO equation is solved iteratively-               conjugate-gradient

       Maximun of Iterations for Charges (NCIX)                  1000
       Criterion for Charge convergence (CCNV)                1.0E-08

  COSMO charges included variationally in SCF

       COSMO included at every SCF cycle

  Geometry-dependent empirical factor                         0.00000

  C-Matrix calculated in cspmtx

  In cspmtx, C-Matrix calculated using fitted potential

-------------------------------------------



 -------------------------------------------
  COSMO surface
  Area             =          626.426
  Volume           =         1126.112
  Number of Points =         1549
 -------------------------------------------
 
 RIHartreeFock Dependency: number of modified vectors:           9
 cosmo_calcen: 0.5 (esolb+esolc) (Hartrees) =   -0.066567

 Solvation energy (screening term,uncorrected) =    -41.771286 kcal/mol

 Solvation energy (dispersion and cavitation terms) =      1.171369 kcal/mol
 Solvation Energy Contributions (Hartrees)
          esola   esolb+esolc
     0.06656677   -0.13313355
 esol last cycle   -0.06656677
  
 Hartree-Fock exchange energy:   -546.249414447286     
 cosmo_calcen: 0.5 (esolb+esolc) (Hartrees) =   -0.066567

 Solvation energy (screening term,uncorrected) =    -41.771280 kcal/mol

 Solvation energy (dispersion and cavitation terms) =      1.171369 kcal/mol
 Solvation Energy Contributions (Hartrees)
          esola   esolb+esolc
     0.06656677   -0.13313353
 esol last cycle   -0.06656677

 Energy gradients wrt nuclear displacements
 ==========================================

     Atom      Cartesian (a.u./angstrom)
                 X         Y         Z
 ----------------------------------------
     1 Pa   -0.010857  0.009087 -0.002020
     2 O     0.001064 -0.002667  0.001161
     3 O    -0.002516  0.003382 -0.001863
     4 Cl    0.003260 -0.005029 -0.003332
     5 H     0.000631 -0.000677 -0.000479
     6 O     0.003967  0.001810  0.000216
     7 H    -0.000670  0.000368  0.000636
     8 H    -0.001261  0.000539  0.000318
     9 H    -0.001596  0.001135 -0.001311
    10 O     0.000323 -0.004879  0.006457
    11 O     0.008251 -0.002373  0.000949
    12 H    -0.004997  0.000744  0.001324
    13 H    -0.001131 -0.001018 -0.001202
    14 O     0.006387 -0.000896 -0.000196
    15 H    -0.000397  0.000443 -0.000267
    16 H    -0.000459  0.000031 -0.000389
 ----------------------------------------
 Mulliken charges used for AMS results%charges...

 dE(predicted):    -0.25261E-03, dE(actual):    -0.45644E-03, Trust radius:    0.800000, all in a.u.
 
----------------------------------------------------------------------
Geometry Convergence after Step   5       (Hartree/Angstrom,Angstrom)
----------------------------------------------------------------------
current energy                               -4.27043883 Hartree
energy change                      -0.00045644     0.00001600    F
constrained gradient max            0.01085429     0.00010000    F
constrained gradient rms            0.00330622     0.00006667    F
gradient max                        0.01085429
gradient rms                        0.00330622
cart. step max                      0.06287458     0.00100000    F
cart. step rms                      0.02320709     0.00066667    F
 
 
--------
Geometry
--------
Formula: H8ClO6Pa
Atoms
  Index Symbol   x (angstrom)   y (angstrom)   z (angstrom)
      1     Pa    -0.17909716    -0.30716874     0.43346572       adf.R=2.200
      2      O     1.73227425     1.20633097     1.10085762       adf.R=1.517
      3      O    -0.46029109     0.68945393    -1.36103795       adf.R=1.517
      4     Cl    -1.16256703     1.84919078     1.85205033       adf.R=1.725
      5      H    -0.74933410     1.47668150    -1.83281156       adf.R=1.350
      6      O    -1.14251289    -2.34646443    -0.71902369       adf.R=1.517
      7      H    -1.30139533    -2.42895314    -1.66512011       adf.R=1.350
      8      H    -0.98117641    -3.23899999    -0.39543921       adf.R=1.350
      9      H     1.69895612     1.80498791     1.85398754       adf.R=1.350
     10      O    -0.03626365    -1.34586562     1.95351207       adf.R=1.517
     11      O     1.66184370    -1.14426965    -0.38136556       adf.R=1.517
     12      H     1.93202784    -0.87715283    -1.26848166       adf.R=1.350
     13      H     2.59709128     0.78188376     1.11035042       adf.R=1.350
     14      O    -2.72941910    -0.48375338     0.59611592       adf.R=1.517
     15      H    -3.17081871    -1.33527100     0.51073063       adf.R=1.350
     16      H    -3.19554419     0.01408484     1.27571136       adf.R=1.350
 
Total System Charge             0.00000
Bonding info available!
 
 *** GO1_GOStep6 ***

 SOLVATION
-------------------------------------------

  The Delley construction of COSMO surface surface is calculated

       Division Level for Surface Triangles (NDIV)                  3
       Final Division Level for Triangles (NFDIV)                   1
       Radius of the Solvent (RSOL)                           1.93000 angstr
  Dielectric Constant (EPSL)                                 78.39000

       COSMO equation is solved iteratively-               conjugate-gradient

       Maximun of Iterations for Charges (NCIX)                  1000
       Criterion for Charge convergence (CCNV)                1.0E-08

  COSMO charges included variationally in SCF

       COSMO included at every SCF cycle

  Geometry-dependent empirical factor                         0.00000

  C-Matrix calculated in cspmtx

  In cspmtx, C-Matrix calculated using fitted potential

-------------------------------------------



 -------------------------------------------
  COSMO surface
  Area             =          627.705
  Volume           =         1127.846
  Number of Points =         1553
 -------------------------------------------
 
 RIHartreeFock Dependency: number of modified vectors:           9
 cosmo_calcen: 0.5 (esolb+esolc) (Hartrees) =   -0.064905

 Solvation energy (screening term,uncorrected) =    -40.728562 kcal/mol

 Solvation energy (dispersion and cavitation terms) =      1.173760 kcal/mol
 Solvation Energy Contributions (Hartrees)
          esola   esolb+esolc
     0.06490509   -0.12981018
 esol last cycle   -0.06490509
  
 Hartree-Fock exchange energy:   -546.255712062918     
 cosmo_calcen: 0.5 (esolb+esolc) (Hartrees) =   -0.064905

 Solvation energy (screening term,uncorrected) =    -40.728572 kcal/mol

 Solvation energy (dispersion and cavitation terms) =      1.173760 kcal/mol
 Solvation Energy Contributions (Hartrees)
          esola   esolb+esolc
     0.06490510   -0.12981021
 esol last cycle   -0.06490510

 Energy gradients wrt nuclear displacements
 ==========================================

     Atom      Cartesian (a.u./angstrom)
                 X         Y         Z
 ----------------------------------------
     1 Pa   -0.002009 -0.003046  0.007795
     2 O    -0.004481 -0.000880 -0.000599
     3 O     0.000233 -0.000596  0.000753
     4 Cl    0.001926 -0.004069 -0.002476
     5 H     0.000393  0.000227 -0.001008
     6 O     0.003972  0.003331  0.000522
     7 H    -0.000796 -0.001352 -0.000088
     8 H    -0.001047 -0.000735 -0.000654
     9 H     0.002362 -0.000065 -0.000500
    10 O    -0.001363  0.004800 -0.005846
    11 O    -0.003099 -0.001341  0.006344
    12 H     0.000317  0.002171 -0.006079
    13 H     0.000104  0.000299  0.001108
    14 O     0.004714  0.001461  0.001495
    15 H    -0.000279  0.000135 -0.000234
    16 H    -0.000945 -0.000341 -0.000535
 ----------------------------------------
 Mulliken charges used for AMS results%charges...

 dE(predicted):    -0.73570E-03, dE(actual):    -0.84249E-03, Trust radius:    0.800000, all in a.u.
 
----------------------------------------------------------------------
Geometry Convergence after Step   6       (Hartree/Angstrom,Angstrom)
----------------------------------------------------------------------
current energy                               -4.27128131 Hartree
energy change                      -0.00084249     0.00001600    F
constrained gradient max            0.00779309     0.00010000    F
constrained gradient rms            0.00267395     0.00006667    F
gradient max                        0.00779309
gradient rms                        0.00267395
cart. step max                      0.03404980     0.00100000    F
cart. step rms                      0.00679254     0.00066667    F
 
 
--------
Geometry
--------
Formula: H8ClO6Pa
Atoms
  Index Symbol   x (angstrom)   y (angstrom)   z (angstrom)
      1     Pa    -0.17962251    -0.30765131     0.42881814       adf.R=2.200
      2      O     1.73122799     1.21024996     1.09942624       adf.R=1.517
      3      O    -0.45903728     0.68766542    -1.36452630       adf.R=1.517
      4     Cl    -1.17062165     1.85199837     1.85077864       adf.R=1.725
      5      H    -0.75084431     1.47678420    -1.83140437       adf.R=1.350
      6      O    -1.15809644    -2.34773035    -0.71646273       adf.R=1.517
      7      H    -1.30615706    -2.42907715    -1.66450400       adf.R=1.350
      8      H    -0.97790169    -3.23835660    -0.39724906       adf.R=1.350
      9      H     1.69386011     1.79531102     1.86339612       adf.R=1.350
     10      O    -0.03132000    -1.34672110     1.94770603       adf.R=1.517
     11      O     1.66100121    -1.14722613    -0.38953408       adf.R=1.517
     12      H     1.96607764    -0.88077866    -1.26348944       adf.R=1.350
     13      H     2.59861426     0.79038465     1.10566497       adf.R=1.350
     14      O    -2.73546957    -0.48136220     0.59553643       adf.R=1.517
     15      H    -3.17479102    -1.33475036     0.51804674       adf.R=1.350
     16      H    -3.19314614     0.01597514     1.28129850       adf.R=1.350
 
Total System Charge             0.00000
Bonding info available!
 
 *** GO1_GOStep7 ***

 SOLVATION
-------------------------------------------

  The Delley construction of COSMO surface surface is calculated

       Division Level for Surface Triangles (NDIV)                  3
       Final Division Level for Triangles (NFDIV)                   1
       Radius of the Solvent (RSOL)                           1.93000 angstr
  Dielectric Constant (EPSL)                                 78.39000

       COSMO equation is solved iteratively-               conjugate-gradient

       Maximun of Iterations for Charges (NCIX)                  1000
       Criterion for Charge convergence (CCNV)                1.0E-08

  COSMO charges included variationally in SCF

       COSMO included at every SCF cycle

  Geometry-dependent empirical factor                         0.00000

  C-Matrix calculated in cspmtx

  In cspmtx, C-Matrix calculated using fitted potential

-------------------------------------------



 -------------------------------------------
  COSMO surface
  Area             =          625.758
  Volume           =         1125.483
  Number of Points =         1542
 -------------------------------------------
 
 RIHartreeFock Dependency: number of modified vectors:           9
 cosmo_calcen: 0.5 (esolb+esolc) (Hartrees) =   -0.064608

 Solvation energy (screening term,uncorrected) =    -40.541912 kcal/mol

 Solvation energy (dispersion and cavitation terms) =      1.170119 kcal/mol
 Solvation Energy Contributions (Hartrees)
          esola   esolb+esolc
     0.06460764   -0.12921529
 esol last cycle   -0.06460764
  
 Hartree-Fock exchange energy:   -546.253901714277     
 cosmo_calcen: 0.5 (esolb+esolc) (Hartrees) =   -0.064608

 Solvation energy (screening term,uncorrected) =    -40.541913 kcal/mol

 Solvation energy (dispersion and cavitation terms) =      1.170119 kcal/mol
 Solvation Energy Contributions (Hartrees)
          esola   esolb+esolc
     0.06460764   -0.12921529
 esol last cycle   -0.06460764

 Energy gradients wrt nuclear displacements
 ==========================================

     Atom      Cartesian (a.u./angstrom)
                 X         Y         Z
 ----------------------------------------
     1 Pa   -0.003444 -0.002306  0.007661
     2 O    -0.004534 -0.000808 -0.001107
     3 O     0.000572 -0.000989  0.000984
     4 Cl    0.001215 -0.002959 -0.001790
     5 H     0.000464  0.000089 -0.000869
     6 O     0.003317  0.003094  0.000438
     7 H    -0.000753 -0.001401 -0.000089
     8 H    -0.000970 -0.000795 -0.000688
     9 H     0.002524 -0.000038  0.000047
    10 O    -0.000915  0.004432 -0.005536
    11 O    -0.001441 -0.000859  0.002332
    12 H     0.000752  0.000998 -0.003302
    13 H     0.000612  0.000439  0.001197
    14 O     0.003791  0.001308  0.001454
    15 H    -0.000312  0.000086 -0.000261
    16 H    -0.000878 -0.000290 -0.000470
 ----------------------------------------
 Mulliken charges used for AMS results%charges...

 dE(predicted):    -0.10915E-03, dE(actual):    -0.17136E-03, Trust radius:    0.800000, all in a.u.
 
----------------------------------------------------------------------
Geometry Convergence after Step   7       (Hartree/Angstrom,Angstrom)
----------------------------------------------------------------------
current energy                               -4.27145267 Hartree
energy change                      -0.00017136     0.00001600    F
constrained gradient max            0.00765932     0.00010000    F
constrained gradient rms            0.00223587     0.00006667    F
gradient max                        0.00765932
gradient rms                        0.00223587
cart. step max                      0.05565560     0.00100000    F
cart. step rms                      0.01221341     0.00066667    F
 
 
--------
Geometry
--------
Formula: H8ClO6Pa
Atoms
  Index Symbol   x (angstrom)   y (angstrom)   z (angstrom)
      1     Pa    -0.17644695    -0.30999581     0.41739854       adf.R=2.200
      2      O     1.73359139     1.21749067     1.09353128       adf.R=1.517
      3      O    -0.46238578     0.68952482    -1.37082979       adf.R=1.517
      4     Cl    -1.17841822     1.85947081     1.84805710       adf.R=1.725
      5      H    -0.76532502     1.48392833    -1.82127362       adf.R=1.350
      6      O    -1.19149091    -2.35140941    -0.70964712       adf.R=1.517
      7      H    -1.31159782    -2.42794925    -1.66207970       adf.R=1.350
      8      H    -0.96764925    -3.23533120    -0.39938023       adf.R=1.350
      9      H     1.68322486     1.77781393     1.87544130       adf.R=1.350
     10      O    -0.02406726    -1.35105249     1.93849812       adf.R=1.517
     11      O     1.65700959    -1.15392521    -0.39580335       adf.R=1.517
     12      H     2.02173325    -0.88947504    -1.24437915       adf.R=1.350
     13      H     2.60333753     0.80248409     1.09498589       adf.R=1.350
     14      O    -2.74530842    -0.47853765     0.58619906       adf.R=1.517
     15      H    -3.17841853    -1.33654020     0.52792713       adf.R=1.350
     16      H    -3.18401492     0.01821850     1.28485639       adf.R=1.350
 
Total System Charge             0.00000
Bonding info available!
 
 *** GO1_GOStep8 ***

 SOLVATION
-------------------------------------------

  The Delley construction of COSMO surface surface is calculated

       Division Level for Surface Triangles (NDIV)                  3
       Final Division Level for Triangles (NFDIV)                   1
       Radius of the Solvent (RSOL)                           1.93000 angstr
  Dielectric Constant (EPSL)                                 78.39000

       COSMO equation is solved iteratively-               conjugate-gradient

       Maximun of Iterations for Charges (NCIX)                  1000
       Criterion for Charge convergence (CCNV)                1.0E-08

  COSMO charges included variationally in SCF

       COSMO included at every SCF cycle

  Geometry-dependent empirical factor                         0.00000

  C-Matrix calculated in cspmtx

  In cspmtx, C-Matrix calculated using fitted potential

-------------------------------------------



 -------------------------------------------
  COSMO surface
  Area             =          626.292
  Volume           =         1127.364
  Number of Points =         1543
 -------------------------------------------
 
 RIHartreeFock Dependency: number of modified vectors:           9
 cosmo_calcen: 0.5 (esolb+esolc) (Hartrees) =   -0.064097

 Solvation energy (screening term,uncorrected) =    -40.221469 kcal/mol

 Solvation energy (dispersion and cavitation terms) =      1.171118 kcal/mol
 Solvation Energy Contributions (Hartrees)
          esola   esolb+esolc
     0.06409698   -0.12819397
 esol last cycle   -0.06409698
  
 Hartree-Fock exchange energy:   -546.249250317983     
 cosmo_calcen: 0.5 (esolb+esolc) (Hartrees) =   -0.064097

 Solvation energy (screening term,uncorrected) =    -40.221490 kcal/mol

 Solvation energy (dispersion and cavitation terms) =      1.171118 kcal/mol
 Solvation Energy Contributions (Hartrees)
          esola   esolb+esolc
     0.06409702   -0.12819403
 esol last cycle   -0.06409702

 Energy gradients wrt nuclear displacements
 ==========================================

     Atom      Cartesian (a.u./angstrom)
                 X         Y         Z
 ----------------------------------------
     1 Pa   -0.001626 -0.000888  0.001340
     2 O    -0.002622 -0.000180 -0.000595
     3 O     0.000365 -0.000961  0.001099
     4 Cl   -0.000061 -0.000437 -0.000303
     5 H     0.000580 -0.000175 -0.000568
     6 O     0.001479  0.002006  0.000192
     7 H    -0.000549 -0.001163  0.000236
     8 H    -0.000792 -0.000420 -0.000692
     9 H     0.001789  0.000113  0.000441
    10 O     0.000255  0.001254 -0.001439
    11 O    -0.000860  0.000757 -0.001470
    12 H     0.000566 -0.000462  0.000891
    13 H     0.000646  0.000210  0.000518
    14 O     0.001749  0.000266  0.001012
    15 H    -0.000380  0.000209 -0.000317
    16 H    -0.000539 -0.000128 -0.000347
 ----------------------------------------
 Mulliken charges used for AMS results%charges...

 dE(predicted):    -0.18504E-03, dE(actual):    -0.23071E-03, Trust radius:    0.800000, all in a.u.
 
----------------------------------------------------------------------
Geometry Convergence after Step   8       (Hartree/Angstrom,Angstrom)
----------------------------------------------------------------------
current energy                               -4.27168339 Hartree
energy change                      -0.00023071     0.00001600    F
constrained gradient max            0.00264231     0.00010000    F
constrained gradient rms            0.00094021     0.00006667    F
gradient max                        0.00264231
gradient rms                        0.00094021
cart. step max                      0.01461508     0.00100000    F
cart. step rms                      0.00557515     0.00066667    F
 
 
--------
Geometry
--------
Formula: H8ClO6Pa
Atoms
  Index Symbol   x (angstrom)   y (angstrom)   z (angstrom)
      1     Pa    -0.17557990    -0.31061427     0.41293711       adf.R=2.200
      2      O     1.73636025     1.21788322     1.08853180       adf.R=1.517
      3      O    -0.46923367     0.69517007    -1.37063460       adf.R=1.517
      4     Cl    -1.17637179     1.86348045     1.84723107       adf.R=1.725
      5      H    -0.77994009     1.49254235    -1.81045573       adf.R=1.350
      6      O    -1.20151371    -2.35391963    -0.70596731       adf.R=1.517
      7      H    -1.30445527    -2.42670060    -1.66078457       adf.R=1.350
      8      H    -0.95568745    -3.23300172    -0.39841674       adf.R=1.350
      9      H     1.67619281     1.77140985     1.87443552       adf.R=1.350
     10      O    -0.02679346    -1.35281049     1.93615237       adf.R=1.517
     11      O     1.65681921    -1.16003008    -0.39453815       adf.R=1.517
     12      H     2.03519151    -0.89920851    -1.23780454       adf.R=1.350
     13      H     2.60563795     0.80254111     1.09177209       adf.R=1.350
     14      O    -2.74925317    -0.47615244     0.57823140       adf.R=1.517
     15      H    -3.17838932    -1.33674598     0.53054035       adf.R=1.350
     16      H    -3.17921036     0.02087157     1.28227180       adf.R=1.350
 
Total System Charge             0.00000
Bonding info available!
 
 *** GO1_GOStep9 ***

 SOLVATION
-------------------------------------------

  The Delley construction of COSMO surface surface is calculated

       Division Level for Surface Triangles (NDIV)                  3
       Final Division Level for Triangles (NFDIV)                   1
       Radius of the Solvent (RSOL)                           1.93000 angstr
  Dielectric Constant (EPSL)                                 78.39000

       COSMO equation is solved iteratively-               conjugate-gradient

       Maximun of Iterations for Charges (NCIX)                  1000
       Criterion for Charge convergence (CCNV)                1.0E-08

  COSMO charges included variationally in SCF

       COSMO included at every SCF cycle

  Geometry-dependent empirical factor                         0.00000

  C-Matrix calculated in cspmtx

  In cspmtx, C-Matrix calculated using fitted potential

-------------------------------------------



 -------------------------------------------
  COSMO surface
  Area             =          627.108
  Volume           =         1129.789
  Number of Points =         1543
 -------------------------------------------
 
 RIHartreeFock Dependency: number of modified vectors:           9
 cosmo_calcen: 0.5 (esolb+esolc) (Hartrees) =   -0.063802

 Solvation energy (screening term,uncorrected) =    -40.036251 kcal/mol

 Solvation energy (dispersion and cavitation terms) =      1.172643 kcal/mol
 Solvation Energy Contributions (Hartrees)
          esola   esolb+esolc
     0.06380182   -0.12760364
 esol last cycle   -0.06380182
  
 Hartree-Fock exchange energy:   -546.246380432967     
 cosmo_calcen: 0.5 (esolb+esolc) (Hartrees) =   -0.063802

 Solvation energy (screening term,uncorrected) =    -40.036252 kcal/mol

 Solvation energy (dispersion and cavitation terms) =      1.172643 kcal/mol
 Solvation Energy Contributions (Hartrees)
          esola   esolb+esolc
     0.06380182   -0.12760364
 esol last cycle   -0.06380182

 Energy gradients wrt nuclear displacements
 ==========================================

     Atom      Cartesian (a.u./angstrom)
                 X         Y         Z
 ----------------------------------------
     1 Pa   -0.001068  0.000151 -0.001926
     2 O    -0.000807  0.000165  0.000307
     3 O    -0.000177 -0.000472  0.000966
     4 Cl   -0.000418  0.000521  0.000206
     5 H     0.000586 -0.000206 -0.000478
     6 O     0.000715  0.001313  0.000173
     7 H    -0.000393 -0.000742  0.000236
     8 H    -0.000670 -0.000238 -0.000453
     9 H     0.000872  0.000079  0.000204
    10 O     0.000604 -0.000630  0.001059
    11 O    -0.000070  0.000751 -0.001804
    12 H     0.000407 -0.000701  0.001607
    13 H     0.000212  0.000034 -0.000197
    14 O     0.000921 -0.000332  0.000699
    15 H    -0.000328  0.000331 -0.000355
    16 H    -0.000387 -0.000024 -0.000245
 ----------------------------------------
 Mulliken charges used for AMS results%charges...

 dE(predicted):    -0.45248E-04, dE(actual):    -0.52650E-04, Trust radius:    0.800000, all in a.u.
 
----------------------------------------------------------------------
Geometry Convergence after Step   9       (Hartree/Angstrom,Angstrom)
----------------------------------------------------------------------
current energy                               -4.27173604 Hartree
energy change                      -0.00005265     0.00001600    F
constrained gradient max            0.00192730     0.00010000    F
constrained gradient rms            0.00069905     0.00006667    F
gradient max                        0.00192730
gradient rms                        0.00069905
cart. step max                      0.02133708     0.00100000    F
cart. step rms                      0.00704040     0.00066667    F
 
 
--------
Geometry
--------
Formula: H8ClO6Pa
Atoms
  Index Symbol   x (angstrom)   y (angstrom)   z (angstrom)
      1     Pa    -0.17522719    -0.31143233     0.40879861       adf.R=2.200
      2      O     1.73914613     1.21594174     1.08350105       adf.R=1.517
      3      O    -0.47769503     0.70232597    -1.36970721       adf.R=1.517
      4     Cl    -1.17049076     1.86721057     1.84605437       adf.R=1.725
      5      H    -0.79794952     1.50275124    -1.79704957       adf.R=1.350
      6      O    -1.20563962    -2.35876945    -0.70258268       adf.R=1.517
      7      H    -1.28727493    -2.42716863    -1.65989540       adf.R=1.350
      8      H    -0.93435036    -3.23105019    -0.39681264       adf.R=1.350
      9      H     1.66616762     1.76618353     1.87044557       adf.R=1.350
     10      O    -0.03503131    -1.35344295     1.93429166       adf.R=1.517
     11      O     1.65467733    -1.16794610    -0.39407990       adf.R=1.517
     12      H     2.03401699    -0.91111431    -1.23842326       adf.R=1.350
     13      H     2.60656604     0.79750823     1.09565263       adf.R=1.350
     14      O    -2.75297447    -0.47025931     0.56919442       adf.R=1.517
     15      H    -3.17750445    -1.33383214     0.53529999       adf.R=1.350
     16      H    -3.17266293     0.02780902     1.27881423       adf.R=1.350
 
Total System Charge             0.00000
Bonding info available!
 
 *** GO1_GOStep10 ***

 SOLVATION
-------------------------------------------

  The Delley construction of COSMO surface surface is calculated

       Division Level for Surface Triangles (NDIV)                  3
       Final Division Level for Triangles (NFDIV)                   1
       Radius of the Solvent (RSOL)                           1.93000 angstr
  Dielectric Constant (EPSL)                                 78.39000

       COSMO equation is solved iteratively-               conjugate-gradient

       Maximun of Iterations for Charges (NCIX)                  1000
       Criterion for Charge convergence (CCNV)                1.0E-08

  COSMO charges included variationally in SCF

       COSMO included at every SCF cycle

  Geometry-dependent empirical factor                         0.00000

  C-Matrix calculated in cspmtx

  In cspmtx, C-Matrix calculated using fitted potential

-------------------------------------------



 -------------------------------------------
  COSMO surface
  Area             =          628.872
  Volume           =         1133.519
  Number of Points =         1549
 -------------------------------------------
 
 RIHartreeFock Dependency: number of modified vectors:           9
 cosmo_calcen: 0.5 (esolb+esolc) (Hartrees) =   -0.063305

 Solvation energy (screening term,uncorrected) =    -39.724537 kcal/mol

 Solvation energy (dispersion and cavitation terms) =      1.175941 kcal/mol
 Solvation Energy Contributions (Hartrees)
          esola   esolb+esolc
     0.06330507   -0.12661014
 esol last cycle   -0.06330507
  
 Hartree-Fock exchange energy:   -546.244432632528     
 cosmo_calcen: 0.5 (esolb+esolc) (Hartrees) =   -0.063305

 Solvation energy (screening term,uncorrected) =    -39.724536 kcal/mol

 Solvation energy (dispersion and cavitation terms) =      1.175941 kcal/mol
 Solvation Energy Contributions (Hartrees)
          esola   esolb+esolc
     0.06330507   -0.12661014
 esol last cycle   -0.06330507

 Energy gradients wrt nuclear displacements
 ==========================================

     Atom      Cartesian (a.u./angstrom)
                 X         Y         Z
 ----------------------------------------
     1 Pa    0.000158  0.000116 -0.003923
     2 O     0.000713  0.000521  0.001121
     3 O    -0.000842  0.000093  0.000845
     4 Cl   -0.000543  0.001061  0.000458
     5 H     0.000557 -0.000150 -0.000452
     6 O     0.000203  0.000559  0.000184
     7 H    -0.000206 -0.000223  0.000173
     8 H    -0.000467 -0.000058 -0.000181
     9 H    -0.000004  0.000015 -0.000076
    10 O     0.000475 -0.001592  0.002404
    11 O     0.000077  0.000502 -0.000935
    12 H     0.000351 -0.000558  0.001274
    13 H    -0.000242 -0.000179 -0.000844
    14 O     0.000319 -0.000463  0.000470
    15 H    -0.000274  0.000340 -0.000343
    16 H    -0.000274  0.000015 -0.000174
 ----------------------------------------
 Mulliken charges used for AMS results%charges...

 dE(predicted):    -0.39387E-04, dE(actual):     0.67945E-05, Trust radius:    0.027536, all in a.u.
 
----------------------------------------------------------------------
Geometry Convergence after Step  10       (Hartree/Angstrom,Angstrom)
----------------------------------------------------------------------
current energy                               -4.27172924 Hartree
energy change                       0.00000679     0.00001600    T
constrained gradient max            0.00392462     0.00010000    F
constrained gradient rms            0.00085715     0.00006667    F
gradient max                        0.00392462
gradient rms                        0.00085715
cart. step max                      0.00918058     0.00100000    F
cart. step rms                      0.00294550     0.00066667    F
 
 
--------
Geometry
--------
Formula: H8ClO6Pa
Atoms
  Index Symbol   x (angstrom)   y (angstrom)   z (angstrom)
      1     Pa    -0.17579541    -0.31148497     0.40849891       adf.R=2.200
      2      O     1.73922418     1.21414537     1.08292263       adf.R=1.517
      3      O    -0.47898218     0.70387650    -1.36964067       adf.R=1.517
      4     Cl    -1.16710151     1.86777022     1.84540254       adf.R=1.725
      5      H    -0.80114079     1.50534311    -1.79361928       adf.R=1.350
      6      O    -1.20215860    -2.36115870    -0.70220296       adf.R=1.517
      7      H    -1.27942279    -2.42892837    -1.65997332       adf.R=1.350
      8      H    -0.92627801    -3.23155839    -0.39503265       adf.R=1.350
      9      H     1.66267773     1.76502747     1.86904659       adf.R=1.350
     10      O    -0.03957468    -1.35259621     1.93398217       adf.R=1.517
     11      O     1.65275335    -1.17053735    -0.39542450       adf.R=1.517
     12      H     2.02483641    -0.91203578    -1.24298334       adf.R=1.350
     13      H     2.60603004     0.79459044     1.09987004       adf.R=1.350
     14      O    -2.75355091    -0.46735514     0.56756327       adf.R=1.517
     15      H    -3.17703617    -1.33163310     0.53676241       adf.R=1.350
     16      H    -3.17070712     0.03124982     1.27833004       adf.R=1.350
 
Total System Charge             0.00000
Bonding info available!
 
 *** GO1_GOStep11 ***

 SOLVATION
-------------------------------------------

  The Delley construction of COSMO surface surface is calculated

       Division Level for Surface Triangles (NDIV)                  3
       Final Division Level for Triangles (NFDIV)                   1
       Radius of the Solvent (RSOL)                           1.93000 angstr
  Dielectric Constant (EPSL)                                 78.39000

       COSMO equation is solved iteratively-               conjugate-gradient

       Maximun of Iterations for Charges (NCIX)                  1000
       Criterion for Charge convergence (CCNV)                1.0E-08

  COSMO charges included variationally in SCF

       COSMO included at every SCF cycle

  Geometry-dependent empirical factor                         0.00000

  C-Matrix calculated in cspmtx

  In cspmtx, C-Matrix calculated using fitted potential

-------------------------------------------



 -------------------------------------------
  COSMO surface
  Area             =          628.249
  Volume           =         1132.467
  Number of Points =         1548
 -------------------------------------------
 
 RIHartreeFock Dependency: number of modified vectors:           9
 cosmo_calcen: 0.5 (esolb+esolc) (Hartrees) =   -0.063078

 Solvation energy (screening term,uncorrected) =    -39.582286 kcal/mol

 Solvation energy (dispersion and cavitation terms) =      1.174778 kcal/mol
 Solvation Energy Contributions (Hartrees)
          esola   esolb+esolc
     0.06307838   -0.12615676
 esol last cycle   -0.06307838
  
 Hartree-Fock exchange energy:   -546.244443524763     
 cosmo_calcen: 0.5 (esolb+esolc) (Hartrees) =   -0.063078

 Solvation energy (screening term,uncorrected) =    -39.582286 kcal/mol

 Solvation energy (dispersion and cavitation terms) =      1.174778 kcal/mol
 Solvation Energy Contributions (Hartrees)
          esola   esolb+esolc
     0.06307838   -0.12615676
 esol last cycle   -0.06307838

 Energy gradients wrt nuclear displacements
 ==========================================

     Atom      Cartesian (a.u./angstrom)
                 X         Y         Z
 ----------------------------------------
     1 Pa    0.000573 -0.000572 -0.002827
     2 O     0.000406  0.000509  0.000693
     3 O    -0.000929  0.000025  0.000844
     4 Cl   -0.000379  0.000851  0.000311
     5 H     0.000488  0.000069 -0.000543
     6 O     0.000379  0.000419  0.000262
     7 H    -0.000259  0.000041 -0.000255
     8 H    -0.000346 -0.000232  0.000140
     9 H    -0.000092  0.000228  0.000240
    10 O     0.000142 -0.000933  0.001540
    11 O    -0.000268  0.000139 -0.000118
    12 H     0.000478 -0.000222  0.000494
    13 H     0.000019 -0.000376 -0.000789
    14 O     0.000390 -0.000260  0.000390
    15 H    -0.000261  0.000096 -0.000403
    16 H    -0.000340  0.000219  0.000021
 ----------------------------------------
 Mulliken charges used for AMS results%charges...

 dE(predicted):    -0.19079E-04, dE(actual):     0.31349E-03, Trust radius:    0.020000, all in a.u.
 
----------------------------------------------------------------------
Geometry Convergence after Step  11       (Hartree/Angstrom,Angstrom)
----------------------------------------------------------------------
current energy                               -4.27141575 Hartree
energy change                       0.00031349     0.00001600    F
constrained gradient max            0.00282805     0.00010000    F
constrained gradient rms            0.00062643     0.00006667    F
gradient max                        0.00282805
gradient rms                        0.00062643
cart. step max                      0.01020213     0.00100000    F
cart. step rms                      0.00270052     0.00066667    F
 
 
--------
Geometry
--------
Formula: H8ClO6Pa
Atoms
  Index Symbol   x (angstrom)   y (angstrom)   z (angstrom)
      1     Pa    -0.17693673    -0.31125640     0.40862984       adf.R=2.200
      2      O     1.73837833     1.21240571     1.08301960       adf.R=1.517
      3      O    -0.47757044     0.70404398    -1.37056862       adf.R=1.517
      4     Cl    -1.16463167     1.86784739     1.84473522       adf.R=1.725
      5      H    -0.80024514     1.50676836    -1.79139875       adf.R=1.350
      6      O    -1.19866960    -2.36317170    -0.70202990       adf.R=1.517
      7      H    -1.27302471    -2.43118532    -1.65973843       adf.R=1.350
      8      H    -0.91962547    -3.23182950    -0.39330328       adf.R=1.350
      9      H     1.65944762     1.76301173     1.86865622       adf.R=1.350
     10      O    -0.04311625    -1.35139167     1.93323905       adf.R=1.517
     11      O     1.64997538    -1.17286909    -0.39795299       adf.R=1.517
     12      H     2.01463428    -0.91076008    -1.24794873       adf.R=1.350
     13      H     2.60528630     0.79363230     1.10354442       adf.R=1.350
     14      O    -2.75423746    -0.46488753     0.56727055       adf.R=1.517
     15      H    -3.17684312    -1.32959232     0.53842025       adf.R=1.350
     16      H    -3.16904777     0.03394903     1.27892743       adf.R=1.350
 
Total System Charge             0.00000
Bonding info available!
 
 *** GO1_GOStep12 ***

 SOLVATION
-------------------------------------------

  The Delley construction of COSMO surface surface is calculated

       Division Level for Surface Triangles (NDIV)                  3
       Final Division Level for Triangles (NFDIV)                   1
       Radius of the Solvent (RSOL)                           1.93000 angstr
  Dielectric Constant (EPSL)                                 78.39000

       COSMO equation is solved iteratively-               conjugate-gradient

       Maximun of Iterations for Charges (NCIX)                  1000
       Criterion for Charge convergence (CCNV)                1.0E-08

  COSMO charges included variationally in SCF

       COSMO included at every SCF cycle

  Geometry-dependent empirical factor                         0.00000

  C-Matrix calculated in cspmtx

  In cspmtx, C-Matrix calculated using fitted potential

-------------------------------------------



 -------------------------------------------
  COSMO surface
  Area             =          629.796
  Volume           =         1135.114
  Number of Points =         1552
 -------------------------------------------
 
 RIHartreeFock Dependency: number of modified vectors:           9
 cosmo_calcen: 0.5 (esolb+esolc) (Hartrees) =   -0.062851

 Solvation energy (screening term,uncorrected) =    -39.439434 kcal/mol

 Solvation energy (dispersion and cavitation terms) =      1.177669 kcal/mol
 Solvation Energy Contributions (Hartrees)
          esola   esolb+esolc
     0.06285073   -0.12570146
 esol last cycle   -0.06285073
  
 Hartree-Fock exchange energy:   -546.246418457008     
 cosmo_calcen: 0.5 (esolb+esolc) (Hartrees) =   -0.062851

 Solvation energy (screening term,uncorrected) =    -39.439439 kcal/mol

 Solvation energy (dispersion and cavitation terms) =      1.177669 kcal/mol
 Solvation Energy Contributions (Hartrees)
          esola   esolb+esolc
     0.06285074   -0.12570148
 esol last cycle   -0.06285074

 Energy gradients wrt nuclear displacements
 ==========================================

     Atom      Cartesian (a.u./angstrom)
                 X         Y         Z
 ----------------------------------------
     1 Pa    0.000678 -0.001363 -0.001014
     2 O     0.000293  0.000684  0.001025
     3 O    -0.000946  0.000199  0.000708
     4 Cl   -0.000168  0.000522  0.000113
     5 H     0.000571 -0.000139 -0.000421
     6 O     0.000705 -0.000052 -0.000244
     7 H    -0.000248  0.000235  0.000143
     8 H    -0.000383  0.000032  0.000215
     9 H     0.000107 -0.000306 -0.000346
    10 O    -0.000177  0.000174  0.000021
    11 O    -0.000479 -0.000101  0.000240
    12 H     0.000461 -0.000001  0.000056
    13 H    -0.000311 -0.000104 -0.000596
    14 O     0.000079 -0.000022  0.000850
    15 H    -0.000080  0.000139 -0.000477
    16 H    -0.000101  0.000103 -0.000273
 ----------------------------------------
 Mulliken charges used for AMS results%charges...

 dE(predicted):    -0.17042E-04, dE(actual):     0.33826E-04, Trust radius:    0.020000, all in a.u.
 
----------------------------------------------------------------------
Geometry Convergence after Step  12       (Hartree/Angstrom,Angstrom)
----------------------------------------------------------------------
current energy                               -4.27138193 Hartree
energy change                       0.00003383     0.00001600    F
constrained gradient max            0.00136225     0.00010000    F
constrained gradient rms            0.00046550     0.00006667    F
gradient max                        0.00136225
gradient rms                        0.00046550
cart. step max                      0.00790143     0.00100000    F
cart. step rms                      0.00205009     0.00066667    F
 
 
--------
Geometry
--------
Formula: H8ClO6Pa
Atoms
  Index Symbol   x (angstrom)   y (angstrom)   z (angstrom)
      1     Pa    -0.17792472    -0.31070998     0.40859293       adf.R=2.200
      2      O     1.73810584     1.21095024     1.08268949       adf.R=1.517
      3      O    -0.47568103     0.70435728    -1.37174355       adf.R=1.517
      4     Cl    -1.16308095     1.86807547     1.84427097       adf.R=1.725
      5      H    -0.79924103     1.50868741    -1.78885813       adf.R=1.350
      6      O    -1.19725738    -2.36445365    -0.70129324       adf.R=1.517
      7      H    -1.26879980    -2.43298539    -1.65918136       adf.R=1.350
      8      H    -0.91468214    -3.23152473    -0.39133965       adf.R=1.350
      9      H     1.65641268     1.76165953     1.86819880       adf.R=1.350
     10      O    -0.04501520    -1.35076114     1.93265000       adf.R=1.517
     11      O     1.64787807    -1.17460029    -0.40001145       adf.R=1.517
     12      H     2.00673285    -0.90998116    -1.25178198       adf.R=1.350
     13      H     2.60544766     0.79297876     1.10668449       adf.R=1.350
     14      O    -2.75502285    -0.46350864     0.56607989       adf.R=1.517
     15      H    -3.17644487    -1.32888008     0.53958860       adf.R=1.350
     16      H    -3.16765356     0.03541127     1.27895605       adf.R=1.350
 
Total System Charge             0.00000
Bonding info available!
 
 *** GO1_GOStep13 ***

 SOLVATION
-------------------------------------------

  The Delley construction of COSMO surface surface is calculated

       Division Level for Surface Triangles (NDIV)                  3
       Final Division Level for Triangles (NFDIV)                   1
       Radius of the Solvent (RSOL)                           1.93000 angstr
  Dielectric Constant (EPSL)                                 78.39000

       COSMO equation is solved iteratively-               conjugate-gradient

       Maximun of Iterations for Charges (NCIX)                  1000
       Criterion for Charge convergence (CCNV)                1.0E-08

  COSMO charges included variationally in SCF

       COSMO included at every SCF cycle

  Geometry-dependent empirical factor                         0.00000

  C-Matrix calculated in cspmtx

  In cspmtx, C-Matrix calculated using fitted potential

-------------------------------------------



 -------------------------------------------
  COSMO surface
  Area             =          629.891
  Volume           =         1135.341
  Number of Points =         1551
 -------------------------------------------
 
 RIHartreeFock Dependency: number of modified vectors:           9
 cosmo_calcen: 0.5 (esolb+esolc) (Hartrees) =   -0.062693

 Solvation energy (screening term,uncorrected) =    -39.340610 kcal/mol

 Solvation energy (dispersion and cavitation terms) =      1.177848 kcal/mol
 Solvation Energy Contributions (Hartrees)
          esola   esolb+esolc
     0.06269325   -0.12538649
 esol last cycle   -0.06269325
  
 Hartree-Fock exchange energy:   -546.247313004219     
 cosmo_calcen: 0.5 (esolb+esolc) (Hartrees) =   -0.062693

 Solvation energy (screening term,uncorrected) =    -39.340609 kcal/mol

 Solvation energy (dispersion and cavitation terms) =      1.177848 kcal/mol
 Solvation Energy Contributions (Hartrees)
          esola   esolb+esolc
     0.06269324   -0.12538649
 esol last cycle   -0.06269324

 Energy gradients wrt nuclear displacements
 ==========================================

     Atom      Cartesian (a.u./angstrom)
                 X         Y         Z
 ----------------------------------------
     1 Pa    0.000507 -0.001376 -0.000245
     2 O     0.000077  0.000580  0.000927
     3 O    -0.000955  0.000385  0.000588
     4 Cl   -0.000047  0.000328  0.000009
     5 H     0.000645 -0.000348 -0.000324
     6 O     0.000886 -0.000321 -0.000459
     7 H    -0.000251  0.000339  0.000330
     8 H    -0.000411  0.000196  0.000277
     9 H     0.000154 -0.000433 -0.000400
    10 O    -0.000288  0.000577 -0.000536
    11 O    -0.000347 -0.000230  0.000185
    12 H     0.000344  0.000062  0.000030
    13 H    -0.000289  0.000000 -0.000503
    14 O    -0.000156  0.000009  0.001116
    15 H     0.000017  0.000223 -0.000512
    16 H     0.000114  0.000008 -0.000483
 ----------------------------------------
 Mulliken charges used for AMS results%charges...

 dE(predicted):    -0.11025E-04, dE(actual):    -0.29970E-03, Trust radius:    0.040000, all in a.u.
 
----------------------------------------------------------------------
Geometry Convergence after Step  13       (Hartree/Angstrom,Angstrom)
----------------------------------------------------------------------
current energy                               -4.27168163 Hartree
energy change                      -0.00029970     0.00001600    F
constrained gradient max            0.00137567     0.00010000    F
constrained gradient rms            0.00047346     0.00006667    F
gradient max                        0.00137567
gradient rms                        0.00047346
cart. step max                      0.01246033     0.00100000    F
cart. step rms                      0.00334803     0.00066667    F
 
 
--------
Geometry
--------
Formula: H8ClO6Pa
Atoms
  Index Symbol   x (angstrom)   y (angstrom)   z (angstrom)
      1     Pa    -0.17921651    -0.30970711     0.40823498       adf.R=2.200
      2      O     1.73825615     1.20878673     1.08185752       adf.R=1.517
      3      O    -0.47178885     0.70486603    -1.37423929       adf.R=1.517
      4     Cl    -1.16117885     1.86866475     1.84329396       adf.R=1.725
      5      H    -0.79778452     1.51265884    -1.78350949       adf.R=1.350
      6      O    -1.19673686    -2.36641668    -0.69958497       adf.R=1.517
      7      H    -1.26286578    -2.43609940    -1.65806232       adf.R=1.350
      8      H    -0.90687674    -3.23068856    -0.38797089       adf.R=1.350
      9      H     1.65109480     1.76008286     1.86714604       adf.R=1.350
     10      O    -0.04694862    -1.35020502     1.93170739       adf.R=1.517
     11      O     1.64427002    -1.17718448    -0.40341936       adf.R=1.517
     12      H     1.99427252    -0.90920966    -1.25795268       adf.R=1.350
     13      H     2.60631175     0.79193724     1.11271403       adf.R=1.350
     14      O    -2.75646213    -0.46160016     0.56303842       adf.R=1.517
     15      H    -3.17528183    -1.32856393     0.54166415       adf.R=1.350
     16      H    -3.16529101     0.03739349     1.27858437       adf.R=1.350
 
Total System Charge             0.00000
Bonding info available!
 
 *** GO1_GOStep14 ***

 SOLVATION
-------------------------------------------

  The Delley construction of COSMO surface surface is calculated

       Division Level for Surface Triangles (NDIV)                  3
       Final Division Level for Triangles (NFDIV)                   1
       Radius of the Solvent (RSOL)                           1.93000 angstr
  Dielectric Constant (EPSL)                                 78.39000

       COSMO equation is solved iteratively-               conjugate-gradient

       Maximun of Iterations for Charges (NCIX)                  1000
       Criterion for Charge convergence (CCNV)                1.0E-08

  COSMO charges included variationally in SCF

       COSMO included at every SCF cycle

  Geometry-dependent empirical factor                         0.00000

  C-Matrix calculated in cspmtx

  In cspmtx, C-Matrix calculated using fitted potential

-------------------------------------------



 -------------------------------------------
  COSMO surface
  Area             =          629.548
  Volume           =         1135.325
  Number of Points =         1551
 -------------------------------------------
 
 RIHartreeFock Dependency: number of modified vectors:           9
 cosmo_calcen: 0.5 (esolb+esolc) (Hartrees) =   -0.062419

 Solvation energy (screening term,uncorrected) =    -39.168531 kcal/mol

 Solvation energy (dispersion and cavitation terms) =      1.177205 kcal/mol
 Solvation Energy Contributions (Hartrees)
          esola   esolb+esolc
     0.06241902   -0.12483804
 esol last cycle   -0.06241902
  
 Hartree-Fock exchange energy:   -546.246618557404     
 cosmo_calcen: 0.5 (esolb+esolc) (Hartrees) =   -0.062419

 Solvation energy (screening term,uncorrected) =    -39.168529 kcal/mol

 Solvation energy (dispersion and cavitation terms) =      1.177205 kcal/mol
 Solvation Energy Contributions (Hartrees)
          esola   esolb+esolc
     0.06241902   -0.12483803
 esol last cycle   -0.06241902

 Energy gradients wrt nuclear displacements
 ==========================================

     Atom      Cartesian (a.u./angstrom)
                 X         Y         Z
 ----------------------------------------
     1 Pa    0.000250 -0.001083  0.000478
     2 O    -0.000481  0.000049 -0.000150
     3 O    -0.000668 -0.000057  0.000628
     4 Cl    0.000084  0.000117 -0.000097
     5 H     0.000497  0.000082 -0.000530
     6 O     0.000947 -0.000161 -0.000232
     7 H    -0.000254  0.000367 -0.000044
     8 H    -0.000317  0.000020  0.000434
     9 H     0.000100  0.000003  0.000385
    10 O    -0.000335  0.000717 -0.000797
    11 O    -0.000229 -0.000356  0.000218
    12 H     0.000165  0.000167 -0.000062
    13 H     0.000232 -0.000090 -0.000328
    14 O     0.000029 -0.000134  0.000683
    15 H    -0.000003  0.000020 -0.000541
    16 H    -0.000016  0.000339 -0.000046
 ----------------------------------------
 Mulliken charges used for AMS results%charges...

 dE(predicted):    -0.18707E-04, dE(actual):    -0.13384E-03, Trust radius:    0.080000, all in a.u.
 
----------------------------------------------------------------------
Geometry Convergence after Step  14       (Hartree/Angstrom,Angstrom)
----------------------------------------------------------------------
current energy                               -4.27181547 Hartree
energy change                      -0.00013384     0.00001600    F
constrained gradient max            0.00108357     0.00010000    F
constrained gradient rms            0.00039044     0.00006667    F
gradient max                        0.00108357
gradient rms                        0.00039044
cart. step max                      0.01346978     0.00100000    F
cart. step rms                      0.00495436     0.00066667    F
 
 
--------
Geometry
--------
Formula: H8ClO6Pa
Atoms
  Index Symbol   x (angstrom)   y (angstrom)   z (angstrom)
      1     Pa    -0.18006781    -0.30882276     0.40605600       adf.R=2.200
      2      O     1.73927724     1.20642083     1.08017682       adf.R=1.517
      3      O    -0.46842587     0.70688651    -1.37764499       adf.R=1.517
      4     Cl    -1.15882853     1.87001539     1.84155209       adf.R=1.725
      5      H    -0.80110705     1.51900644    -1.77298129       adf.R=1.350
      6      O    -1.19964966    -2.36966310    -0.69652983       adf.R=1.517
      7      H    -1.25372993    -2.43971364    -1.65590472       adf.R=1.350
      8      H    -0.89340696    -3.22824775    -0.38447859       adf.R=1.350
      9      H     1.64183180     1.75766746     1.86448524       adf.R=1.350
     10      O    -0.04936830    -1.34994124     1.92951256       adf.R=1.517
     11      O     1.63971322    -1.18173271    -0.40830817       adf.R=1.517
     12      H     1.98237910    -0.91258848    -1.26553882       adf.R=1.350
     13      H     2.60706739     0.78994704     1.12308051       adf.R=1.350
     14      O    -2.75900523    -0.45795728     0.55661995       adf.R=1.517
     15      H    -3.17292522    -1.32758629     0.54661607       adf.R=1.350
[...]
    14     O      -0.000276   0.000105   0.000269
    15     H       0.000843   0.002161   0.000057
    16     H       0.002742  -0.003633  -0.004511
 
 Mode:    46      Frequency (cm-1):     3888.4996     Intensity (km/mol):      228.1767
 Index  Atom      ---- Displacements (x/y/z) ----
     1    Pa       0.000001   0.000002   0.000001
     2     O       0.001487  -0.001669  -0.001242
     3     O       0.000266  -0.000323   0.000155
     4    Cl      -0.000021   0.000028   0.000029
     5     H      -0.004072   0.005188  -0.002377
     6     O      -0.000279   0.000567  -0.000921
     7     H       0.000847   0.001309   0.011556
     8     H       0.002914  -0.008855   0.002866
     9     H      -0.003242   0.016283   0.022106
    10     O      -0.000026   0.000011  -0.000030
    11     O      -0.000062  -0.000009   0.000065
    12     H       0.000406   0.000255  -0.000964
    13     H      -0.020534   0.010057  -0.002178
    14     O       0.003630   0.064866   0.028337
    15     H      -0.328913  -0.685048   0.018461
    16     H       0.273480  -0.347579  -0.469017
 
 Mode:    47      Frequency (cm-1):     3893.3512     Intensity (km/mol):      249.5298
 Index  Atom      ---- Displacements (x/y/z) ----
     1    Pa       0.000008  -0.000003  -0.000002
     2     O       0.045706  -0.045538  -0.029612
     3     O      -0.000203   0.000246  -0.000140
     4    Cl       0.000023  -0.000025  -0.000032
     5     H       0.003255  -0.003681   0.001728
     6     O       0.000819  -0.001609   0.002313
     7     H      -0.002175  -0.002040  -0.027770
     8     H      -0.011015   0.027330  -0.008910
     9     H      -0.076933   0.401738   0.539803
    10     O      -0.000014  -0.000014   0.000030
    11     O       0.000458   0.000234  -0.001028
    12     H      -0.006973  -0.004930   0.016183
    13     H      -0.650834   0.323626  -0.067930
    14     O      -0.000151  -0.002274  -0.000982
    15     H       0.011600   0.024340  -0.000733
    16     H      -0.009281   0.012106   0.016165
 
 Mode:    48      Frequency (cm-1):     3902.0398     Intensity (km/mol):      265.4000
 Index  Atom      ---- Displacements (x/y/z) ----
     1    Pa       0.000003  -0.000006   0.000009
     2     O      -0.001463   0.001912   0.001596
     3     O       0.000673  -0.000821   0.000407
     4    Cl       0.000001  -0.000008   0.000019
     5     H      -0.011257   0.014412  -0.005735
     6     O       0.018973  -0.035710   0.057056
     7     H      -0.054996  -0.050256  -0.710989
     8     H      -0.246993   0.617343  -0.197704
     9     H       0.004341  -0.022135  -0.027144
    10     O      -0.000001   0.000023  -0.000039
    11     O      -0.000498  -0.000292   0.001129
    12     H       0.007308   0.005889  -0.018810
    13     H       0.020088  -0.009641   0.002508
    14     O       0.000151   0.001074   0.000417
    15     H      -0.005688  -0.012921   0.000978
    16     H       0.003439  -0.004287  -0.007008

 Vibrational polarizability tensor (a.u.):
                  X                   Y                   Z
 X            4347.48019          1378.58380           541.28033
 Y            1378.58380          3162.23088           274.65218
 Z             541.28033           274.65218          3007.93458

 Isotropic =      3505.9    atomic units

PES point character: Geometry corresponds to a local minimum on the PES.




 ============================
 Statistical Thermal Analysis  ***  ideal gas assumed  ***
 ============================
  
 Pressure:                  1.000000 atm.
 Temperature:             298.150000 K



 Moments of Inertia [amu*bohr^2] and principal axis
 ==================================================

        1554.9457       1953.1847       2552.3984
 ------------------------------------------------
          -0.1529          0.9845          0.0863
           0.8367          0.1754         -0.5188
           0.5259          0.0071          0.8505


 The rotational contribution to the molecular entropy includes
 a term, dependent on the symmetry number sigma. The results 
 reported below were computed using sigma = 1, determined from
 the point group symmetry of the input geometry (NOSYM). 
 If this is not the correct symmetry, try symmetrizing the molecule before
 running the calculation (note: linear molecules should be aligned along one
 of the Cartesian axes).
 Contributions from frequencies below 20 1/cm are not included in vibrational sums.
 Their contributions, if any, are reported separately.


     Temp                                                        Transl      Rotat     Vibrat     Total
     ----                                                        ------      -----     ------     -----

     298.15   Entropy (cal/mol-K):                               43.618     30.428     60.547    134.593
              Nuclear Internal Energy (kcal/mol):                 0.889      0.889     73.080     74.858
              Constant Volume Heat Capacity (cal/mol-K):          2.981      2.981     50.836     56.797
          (c) Constant Volume Heat Capacity (cal/mol-K):          2.981      2.981     45.841     51.803

       Summary of energy terms
                                                   hartree              eV         kcal/mol           kJ/mol
                                      --------------------     -----------       ----------      -----------
      Energy from Engine:               -4.271961582201860       -116.2460         -2680.70        -11216.03
      Nuclear Internal Energy:           0.119293348276401          3.2461            74.86           313.20
  (c) Nuclear Internal Energy:           0.116683746177942          3.1751            73.22           306.35
      Internal Energy U:                -4.152668233925459       -112.9999         -2605.84        -10902.83
      pV/n = RT:                         0.000944186013486          0.0257             0.59             2.48
      Enthalpy H:                       -4.151724047911973       -112.9742         -2605.25        -10900.35
      -T*S:                             -0.063949659938809         -1.7402           -40.13          -167.90
  (c) -T*S:                             -0.062271642325244         -1.6945           -39.08          -163.49
      Gibbs free energy:                -4.215673707850781       -114.7143         -2645.38        -11068.25
 
 
 
  (c) The properties marked with this symbol have been corrected using 'low vibrational frequency free rotor
      interpolation corrections'. For those terms all positive frequencies are used (also ones below 20 1/cm),
      but the contribution to the partition function of small vibrational frequencies is modified as described
      in the following paper:
      S. Grimme, 'Supramolecular Binding Thermodynamics by Dispersion-Corrected Density Functional Theory'
      (Chem. Eur. J. 2012, 18, 9955-9964)
      Configuration: Dampener Frequency          :   100.000 1/cm
                     Dampener Alpha              :     4.000
                     Averaging Moment of Inertia : 1.000E-44 kg m2

--------------
Atomic charges
--------------
  Index   Atom    Charge
      1     Pa    2.4341
      2      O   -0.4276
      3      O   -0.6687
      4     Cl   -0.6536
      5      H    0.1278
      6      O   -0.4581
      7      H    0.2610
      8      H    0.2713
      9      H    0.2503
     10      O   -0.8409
     11      O   -0.7643
     12      H    0.1412
     13      H    0.2561
     14      O   -0.4353
     15      H    0.2514
     16      H    0.2553


Dipole moment vector    (Debye):    -2.32685995   -4.04403817   -6.20852476
              magnitude (Debye):     7.76622827


-----------------------
Molecular orbitals info
-----------------------
n orbitals:              413
n spin:                    1

Note: only printing virtual orbitals with
      energy smaller than HOMO + 100. eV

HOMO (eV):              -8.1581
LUMO (eV):              -1.2398
HOMO-LUMO gap (eV):      6.9183

   Index   Energy (eV)    Occupation
     266       90.7161         0.000       
     265       89.6531         0.000       
     264       89.0949         0.000       
     263       88.5630         0.000       
     262       87.1228         0.000       
     261       86.3455         0.000       
     260       85.9577         0.000       
     259       85.3105         0.000       
     258       84.9971         0.000       
     257       84.4970         0.000       
     256       83.9486         0.000       
     255       83.3595         0.000       
     254       82.6491         0.000       
     253       82.2754         0.000       
     252       82.0039         0.000       
     251       80.3524         0.000       
     250       79.6546         0.000       
     249       77.9324         0.000       
     248       77.5363         0.000       
     247       77.1757         0.000       
     246       76.2010         0.000       
     245       75.4769         0.000       
     244       75.1721         0.000       
     243       74.5157         0.000       
     242       73.1667         0.000       
     241       72.6014         0.000       
     240       72.0393         0.000       
     239       71.9684         0.000       
     238       71.5009         0.000       
     237       70.7581         0.000       
     236       70.4642         0.000       
     235       69.7958         0.000       
     234       69.3688         0.000       
     233       68.3785         0.000       
     232       67.3641         0.000       
     231       64.7571         0.000       
     230       63.9686         0.000       
     229       63.5097         0.000       
     228       63.0124         0.000       
     227       61.8795         0.000       
     226       61.2979         0.000       
     225       60.0936         0.000       
     224       59.9175         0.000       
     223       59.2260         0.000       
     222       58.3180         0.000       
     221       55.6882         0.000       
     220       55.6136         0.000       
     219       54.7008         0.000       
     218       54.3290         0.000       
     217       53.7852         0.000       
     216       53.4542         0.000       
     215       51.9815         0.000       
     214       51.2552         0.000       
     213       51.1169         0.000       
     212       50.1737         0.000       
     211       49.8826         0.000       
     210       48.9507         0.000       
     209       48.9028         0.000       
     208       47.3687         0.000       
     207       47.2611         0.000       
     206       46.6815         0.000       
     205       45.7918         0.000       
     204       45.5578         0.000       
     203       44.3228         0.000       
     202       44.0136         0.000       
     201       43.8506         0.000       
     200       43.0282         0.000       
     199       42.8660         0.000       
     198       41.5807         0.000       
     197       41.0904         0.000       
     196       40.1960         0.000       
     195       39.8247         0.000       
     194       39.2573         0.000       
     193       38.7067         0.000       
     192       38.5456         0.000       
     191       38.3889         0.000       
     190       38.2147         0.000       
     189       37.8759         0.000       
     188       37.8269         0.000       
     187       37.4494         0.000       
     186       37.0393         0.000       
     185       36.6585         0.000       
     184       36.2539         0.000       
     183       36.0807         0.000       
     182       35.8010         0.000       
     181       35.6010         0.000       
     180       35.5637         0.000       
     179       34.8441         0.000       
     178       34.5521         0.000       
     177       33.9846         0.000       
     176       33.7490         0.000       
     175       32.7920         0.000       
     174       32.5530         0.000       
     173       32.4175         0.000       
     172       31.8149         0.000       
     171       31.2076         0.000       
     170       29.3564         0.000       
     169       28.4562         0.000       
     168       28.3273         0.000       
     167       27.6094         0.000       
     166       26.6569         0.000       
     165       26.2515         0.000       
     164       25.6627         0.000       
     163       24.6336         0.000       
     162       24.5008         0.000       
     161       23.5200         0.000       
     160       23.3861         0.000       
     159       22.8515         0.000       
     158       22.4042         0.000       
     157       22.0109         0.000       
     156       21.7693         0.000       
     155       20.3766         0.000       
     154       20.0468         0.000       
     153       19.8932         0.000       
     152       19.4030         0.000       
     151       19.2343         0.000       
     150       18.4383         0.000       
     149       18.1714         0.000       
     148       17.7920         0.000       
     147       17.4968         0.000       
     146       17.3791         0.000       
     145       16.9979         0.000       
     144       16.8158         0.000       
     143       16.3556         0.000       
     142       16.0838         0.000       
     141       15.8670         0.000       
     140       15.4035         0.000       
     139       15.2496         0.000       
     138       15.0125         0.000       
     137       14.9345         0.000       
     136       14.7728         0.000       
     135       14.6835         0.000       
     134       14.4411         0.000       
     133       13.8855         0.000       
     132       13.6567         0.000       
     131       13.3157         0.000       
     130       12.9024         0.000       
     129       12.6710         0.000       
     128       12.4197         0.000       
     127       11.9779         0.000       
     126       11.7805         0.000       
     125       11.3887         0.000       
     124       10.7004         0.000       
     123       10.4372         0.000       
     122       10.2671         0.000       
     121       10.1541         0.000       
     120        9.8225         0.000       
     119        9.4591         0.000       
     118        8.9186         0.000       
     117        8.6139         0.000       
     116        8.2100         0.000       
     115        7.8488         0.000       
     114        7.4969         0.000       
     113        7.3387         0.000       
     112        6.8973         0.000       
     111        6.1060         0.000       
     110        5.6234         0.000       
     109        5.5434         0.000       
     108        4.9676         0.000       
     107        4.5439         0.000       
     106        4.2300         0.000       
     105        3.9612         0.000       
     104        3.6430         0.000       
     103        3.3949         0.000       
     102        2.8138         0.000       
     101        2.6197         0.000       
     100        2.4633         0.000       
      99        2.2514         0.000       
      98        2.2019         0.000       
      97        2.1146         0.000       
      96        1.9201         0.000       
      95        1.6989         0.000       
      94        1.4512         0.000       
      93        1.2695         0.000       
      92        0.8223         0.000       
      91        0.5786         0.000       
      90        0.4860         0.000       
      89       -0.2987         0.000       
      88       -0.4803         0.000       
      87       -0.5724         0.000       
      86       -0.8590         0.000       
      85       -1.1319         0.000       
      84       -1.2194         0.000       
      83       -1.2398         0.000 < LUMO
      82       -8.1581         2.000 < HOMO
      81       -8.1925         2.000       
      80       -8.4364         2.000       
      79       -8.5800         2.000       
      78       -8.7575         2.000       
      77       -9.1498         2.000       
      76       -9.4077         2.000       
      75       -9.7364         2.000       
      74       -9.7783         2.000       
      73      -10.1282         2.000       
      72      -10.6052         2.000       
      71      -10.7369         2.000       
      70      -10.8379         2.000       
      69      -12.3122         2.000       
      68      -12.6057         2.000       
      67      -12.8720         2.000       
      66      -13.2403         2.000       
      65      -13.6502         2.000       
      64      -16.0796         2.000       
      63      -16.1351         2.000       
      62      -16.1777         2.000       
      61      -21.0180         2.000       
      60      -21.2309         2.000       
      59      -24.0736         2.000       
      58      -24.9056         2.000       
      57      -26.9828         2.000       
      56      -27.6133         2.000       
      55      -29.5644         2.000       
      54      -29.6436         2.000       
      53      -29.8488         2.000       
      52      -29.8856         2.000       
      51      -49.7224         2.000       
      50      -99.5270         2.000       
      49      -99.5567         2.000       
      48      -99.5852         2.000       
      47      -99.6625         2.000       
      46      -99.6654         2.000       
      45     -195.9052         2.000       
      44     -195.9100         2.000       
      43     -195.9347         2.000       
      42     -206.6545         2.000       
      41     -206.9196         2.000       
      40     -206.9461         2.000       
      39     -259.4670         2.000       
      38     -305.3591         2.000       
      37     -360.5748         2.000       
      36     -360.6057         2.000       
      35     -360.6269         2.000       
      34     -360.7722         2.000       
      33     -360.7750         2.000       
      32     -360.9282         2.000       
      31     -360.9299         2.000       
      30     -522.1909         2.000       
      29     -522.2578         2.000       
      28     -523.0426         2.000       
      27     -524.2398         2.000       
      26     -524.2933         2.000       
      25     -524.4331         2.000       
      24     -712.3846         2.000       
      23     -712.5490         2.000       
      22     -712.5689         2.000       
      21     -712.7724         2.000       
      20     -712.7796         2.000       
      19    -1040.6625         2.000       
      18    -1041.0122         2.000       
      17    -1041.0513         2.000       
      16    -1359.0873         2.000       
      15    -2775.6516         2.000       
      14    -3484.2861         2.000       
      13    -3484.3499         2.000       
      12    -3484.3569         2.000       
      11    -3484.4519         2.000       
      10    -3484.4548         2.000       
       9    -4346.4918         2.000       
       8    -4346.6886         2.000       
       7    -4346.7075         2.000       
       6    -5317.6899         2.000       
       5   -17560.6419         2.000       
       4   -17560.6689         2.000       
       3   -17560.6704         2.000       
       2   -21036.4619         2.000       
       1  -112698.3118         2.000       

Final PES point is a local minimum. Geometry optimization successful!


AMS application finished. Exiting.
NORMAL TERMINATION
     Total cpu time:  128379.09
  Total system time:    2182.50
 Total elapsed time:  130553.43
