

 Parallel Execution: Process Information
 ==============================================================================
 Rank   Node Name                              NodeID   MyNodeRank  NodeMaster
    0   u-0-4.local                               0          0          0
    1   u-0-4.local                               0          1         -1
    2   u-0-4.local                               1          0          1
    3   u-0-4.local                               1          1         -1
    4   u-0-4.local                               2          0          2
    5   u-0-4.local                               2          1         -1
    6   u-0-4.local                               3          0          3
    7   u-0-4.local                               3          1         -1
 ==============================================================================


May use up to 31228MB of RAM as shared memory on node 0
May use up to 31250MB of RAM as shared memory on node 1
May use up to 31250MB of RAM as shared memory on node 2
May use up to 31250MB of RAM as shared memory on node 3

 *******************************************************************************
 *                                                                             *
 *  --------------------------------                                           *
 *   Amsterdam Modeling Suite (AMS)              2024.103                      *
 *  --------------------------------                                           *
 *                                               r241004 2024-10-04 d82be5f7   *
 *                                                                             *
 *                                                                             *
 *                              =================                              *
 *                              |               |                              *
 *                              |     A M S     |                              *
 *                              |               |                              *
 *                              =================                              *
 *                                                                             *
 *                                                                             *
 *   Online information and documentation:  https://www.scm.com/support/       *
 *   E-mail:  support@scm.com   info@scm.com                                   *
 *                                                                             *
 *   Scientific publications using AMS results must be properly referenced     *
 *   See the User Manuals (or the web site) for recommended citations          *
 *   The terms and conditions of the End User License Agreement apply to       *
 *   the use of AMS, https://www.scm.com/license-terms/                        *
 *                                                                             *
 **********************  x86_64_linux_intel / intelmpi  ************************
 
 Licensed to: Dr. Val?rie Vallet / Laboratoire PhLAM UMR 8523 / Villeneuve d'Ascq Cedex / FRANCE 2024-12-20 16:14:47
 SCM User ID: u10325
  
 AMS 2024.103  RunTime: Mar26-2025 17:21:43  ShM Nodes: 4  Procs: 8

 AMS jobname: pao_3cl_2h2o_cl_trans.SR.pbe0.tz2p.sp-gp
 AMS jobid  : 716747738

 Start   directory: /state/partition2/shaaban/1048098.phlam-s-sakura/
 Results directory: /home/shaaban/ams/PhD/geometries-exafs/pao-chloride/pao_cl4_2h2o/PBE0/pao_3cl_2h2o_cl_trans.SR.pbe0.tz2p.sp-gp.results/
 Scratch directory: /state/partition2/shaaban/1048098.phlam-s-sakura/amstmp_pao_3cl_2h2o_cl_trans.SR.pbe0.tz2p.sp-gp_kid0.716747738/


 Communication costs MPI_COMM_WORLD:      2.797 usec per message,   0.0110 usec per 8-byte item
 Communication costs for intra-node:      0.602 usec per message,   0.0025 usec per 8-byte item

 RNG seed: -1167250624 28375881 2039610603 -1798952441 -554623864 -786938458 1450777977 -820750451



                      ************************************************************************
                      *  ADF 2024.103  RunTime: Mar26-2025 17:21:44  ShM Nodes: 4  Procs: 8  *
                      ************************************************************************
  

       ****************************
       * SINGLE POINT CALCULATION *
       ****************************
 
--------
Geometry
--------
Formula: H4Cl4O3Pa
Atoms
  Index Symbol   x (angstrom)   y (angstrom)   z (angstrom)
      1     Pa    -0.53075838    -0.90356892     0.31661254
      2     Cl    -0.44370982     1.80774464     0.18709461
      3     Cl    -1.44213799    -3.46119166     0.17186674
      4      O     1.88196605    -0.04110812     0.29765205
      5     Cl    -3.12770080    -0.41425941    -0.02358704
      6     Cl    -0.16597609    -1.00634663    -2.26675421
      7      O    -0.56382498    -0.87320417     2.13874998
      8      H     2.03581962    -2.52434572     1.18864227
      9      O     1.38175795    -2.59891905     0.48431812
     10      H     1.00138487    -3.48473140     0.54983615
     11      H     1.88706074     0.90877554     0.12309399
     12      H     2.53944891    -0.43724577    -0.28547443
 
Total System Charge            -1.00000
Bonding info available!
 
 
----------------
ADF Engine Input
----------------
 
 Basis
 Type TZ2P
 Core None
 End
 XC
 Hybrid PBE0
 End
 NumericalQuality Good
 MBPT
 SigmaFunctionalParametrization W1
 End
 

 Title: *** (NO TITLE) ***

 *** adf ***



 ===========================
 A T T A C H E D   F I L E S
 ===========================
  



 ===============================
 M O D E L   P A R A M E T E R S
 ===============================
  
 DENSITY FUNCTIONAL POTENTIAL (scf)
    Hybrid:                            PBE0                                    == Not Default ==

 SPIN  (restricted / unrestr.)
    Molecule:                          Restricted                               
    Fragments:                         Restricted                               

 OTHER ASPECTS
    Relativistic Corrections:          scalar (ZORA,MAPA)                       

    Nuclear Charge Density Model:      Point Charge Nuclei                      
    Core Treatment:                    Frozen Orbital(s)                        

    Hyperfine or Zeeman Interaction:   ---                                      


 Fragment File(s)
 ----------------
 Pa:
         file : /home/shaaban/ams/PhD/geometries-exafs/pao-chloride/pao_cl4_2h2o/PBE0/pao_3cl_2h2o_cl_trans.SR.pbe0.tz2p.sp-gp.results/t21.7A47308.Pa
         jobid: 0
         title: Protactinium (TZ2P, all electron)
 Cl:
         file : /home/shaaban/ams/PhD/geometries-exafs/pao-chloride/pao_cl4_2h2o/PBE0/pao_3cl_2h2o_cl_trans.SR.pbe0.tz2p.sp-gp.results/t21.72D87B9C.Cl
         jobid: 0
         title: Chlorine (TZ2P)
 O:
         file : /home/shaaban/ams/PhD/geometries-exafs/pao-chloride/pao_cl4_2h2o/PBE0/pao_3cl_2h2o_cl_trans.SR.pbe0.tz2p.sp-gp.results/t21.19EAE705.O
         jobid: 0
         title: Oxygen (TZ2P)
 H:
         file : /home/shaaban/ams/PhD/geometries-exafs/pao-chloride/pao_cl4_2h2o/PBE0/pao_3cl_2h2o_cl_trans.SR.pbe0.tz2p.sp-gp.results/t21.58F79420.H
         jobid: 0
         title: Hydrogen (TZ2P)



 ===============
 G E O M E T R Y  ***  3D  Molecule  ***
 ===============
  

 ATOMS
 =====                            X Y Z                    CHARGE
                                (Angstrom)             Nucl     +Core       At.Mass
                       --------------------------    ----------------       -------
    1  Pa             -0.5308   -0.9036    0.3166     91.00     91.00      231.0359
    2  Cl             -0.4437    1.8077    0.1871     17.00     17.00       34.9689
    3  Cl             -1.4421   -3.4612    0.1719     17.00     17.00       34.9689
    4  O               1.8820   -0.0411    0.2977      8.00      8.00       15.9949
    5  Cl             -3.1277   -0.4143   -0.0236     17.00     17.00       34.9689
    6  Cl             -0.1660   -1.0063   -2.2668     17.00     17.00       34.9689
    7  O              -0.5638   -0.8732    2.1387      8.00      8.00       15.9949
    8  H               2.0358   -2.5243    1.1886      1.00      1.00        1.0078
    9  O               1.3818   -2.5989    0.4843      8.00      8.00       15.9949
   10  H               1.0014   -3.4847    0.5498      1.00      1.00        1.0078
   11  H               1.8871    0.9088    0.1231      1.00      1.00        1.0078
   12  H               2.5394   -0.4372   -0.2855      1.00      1.00        1.0078


 FRAGMENTS
 =========                                     Atoms in this Fragment     Cart. coord.s (Angstrom)
                                               -------------------------------------------------------
    1  Pa                                                1  Pa          -0.5308   -0.9036    0.3166
    2  Cl                                                2  Cl          -0.4437    1.8077    0.1871
    3  Cl                                                3  Cl          -1.4421   -3.4612    0.1719
    4  Cl                                                5  Cl          -3.1277   -0.4143   -0.0236
    5  Cl                                                6  Cl          -0.1660   -1.0063   -2.2668
    6  O                                                 4  O            1.8820   -0.0411    0.2977
    7  O                                                 7  O           -0.5638   -0.8732    2.1387
    8  O                                                 9  O            1.3818   -2.5989    0.4843
    9  H                                                 8  H            2.0358   -2.5243    1.1886
   10  H                                                10  H            1.0014   -3.4847    0.5498
   11  H                                                11  H            1.8871    0.9088    0.1231
   12  H                                                12  H            2.5394   -0.4372   -0.2855


 Interatomic Distance Matrix (Angstrom)
 --------------------------------------

   1)     0.000
   2)     2.716   0.000
   3)     2.719   5.363   0.000
   4)     2.562   2.973   4.771   0.000
   5)     2.664   3.491   3.488   5.034   0.000
   6)     2.611   3.744   3.688   3.421   3.762   0.000
   7)     1.823   3.318   3.367   3.172   3.385   4.425   0.000
   8)     3.158   5.091   3.743   2.643   5.708   4.369   3.223   0.000
   9)     2.561   4.779   2.969   2.613   5.036   3.536   3.082   0.964   0.000
  10)     3.011   5.498   2.473   3.563   5.177   3.929   3.434   1.549   0.966   0.000
  11)     3.028   2.499   5.494   0.966   5.188   3.687   3.639   3.598   3.562   4.502
          0.000
  12)     3.163   3.763   5.021   0.964   5.673   3.401   3.962   2.604   2.570   3.514
          1.551   0.000

 Min. Distance =    0.9640
 Max. Distance =    5.7082



 =====================================
 S Y M M E T R Y ,   E L E C T R O N S
 =====================================
  
 Symmetry: NOSYM

 Irreducible Representations, including subspecies
 -------------------------------------------------
 A

 Symmetry is NOT used when fitting density


 Configuration of Valence Electrons
 ==================================
 ( determined in the SCF procedure )

 Total:   188

 Net Charge: -1 (Nuclei minus Electrons)

 Aufbau principle for MO occupations will be applied through SCF cycle no.     150
 Thereafter, the program will assign electrons to MOs that are spatially
 similar to the occupied MOs in a "reference" cycle ("KeepOrbitals").
 The reference cycle is always the PREVIOUS cycle: it will evolve with
 the SCF procedure.
1
 ***************************************************************************************************



                                      ****************************************
                                      *  B U I L D : (Fragments, Functions)  *
                                      ****************************************
  



 =======
 S F O s  ***  (Symmetrized Fragment Orbitals)  ***
 =======
  
 SFOs are linear combinations of (valence) Fragment Orbitals (FOs), such that the SFOs transform as the
 irreducible representations of the (molecular) symmetry group. Each SFO is therefore characterized by
 an irrep of the molecule and by a few (or only one) generating FOs.
 The SFOs constitute a symmetry-adapted basis for the Fock matrix. The MO eigenvector coefficients in
 this basis provide a direct interpretation of the MOs in terms of Frontier Orbital Theory.

 The SFOs are combined with auxiliary Core Functions (CFs) to ensure orthogonalization on the (frozen)
 Core Orbitals (COs). The Core-orthogonalized SFOs (CSFOs) constitute the true Fock basis.

 The FOs, and hence also the (C)SFOs are combinations of the elementary basis functions (BAS). The basis
 functions that participate in the description of the SFOs depend on the irrep. The indices of the
 involved functions are printed below for each irrep.
 (The complete list of primitive basis functions is printed in another section)

 Total nr. of (C)SFOs (summation over all irreps) :   393

 NOTE: a (C)SFO that is defined as a combination of more than one FO is usually NOT normalized.



                                       === A ===
 Nr. of SFOs :  393
 Cartesian basis functions that participate in this irrep (total number =   449) :
      1     2     3     4     5     6     7     8     9    10
     11    12    13    14    15    16    17    20    23    26
     29    32    35    38    41    44    47    50   157    18
     21    24    27    30    33    36    39    42    45    48
     51   158    19    22    25    28    31    34    37    40
     43    46    49    52   159    53    59    65    71    77
     83    89    95   101    54    60    66    72    78    84
     90    96   102    55    61    67    73    79    85    91
     97   103    56    62    68    74    80    86    92    98
    104    57    63    69    75    81    87    93    99   105
     58    64    70    76    82    88    94   100   106   107
    117   127   137   147   108   118   128   138   148   109
    119   129   139   149   110   120   130   140   150   111
    121   131   141   151   112   122   132   142   152   113
    123   133   143   153   114   124   134   144   154   115
    125   135   145   155   116   126   136   146   156   160
    161   162   163   170   171   172   164   167   173   176
    179   165   168   174   177   180   166   169   175   178
    181   182   183   184   185   186   187   188   189   190
    191   192   193   194   195   196   197   198   199   200
    201   208   209   210   202   205   211   214   217   203
    206   212   215   218   204   207   213   216   219   220
    221   222   223   224   225   226   227   228   229   230
    231   232   233   234   235   236   237   238   239   246
    247   248   240   243   249   252   255   241   244   250
    253   256   242   245   251   254   257   258   259   260
    261   262   263   264   265   266   267   268   269   270
    271   272   273   274   275   276   277   284   285   286
    278   281   287   290   293   279   282   288   291   294
    280   283   289   292   295   296   297   298   299   300
    301   302   303   304   305   306   307   308   309   310
    311   312   313   314   315   316   317   320   323   318
    321   324   319   322   325   326   327   328   329   330
    331   332   333   334   335   336   337   338   339   340
    341   342   343   344   345   346   347   350   353   348
    351   354   349   352   355   356   357   358   359   360
    361   362   363   364   365   366   367   368   369   370
    371   372   373   374   375   376   377   380   383   378
    381   384   379   382   385   386   387   388   389   390
    391   392   393   394   395   396   397   398   399   400
    401   402   403   404   405   406   407   408   409   410
    411   412   413   414   415   416   417   418   419   420
    421   422   423   424   425   426   427   428   429   430
    431   432   433   434   435   436   437   438   439   440
    441   442   443   444   445   446   447   448   449

    SFO  (index         Fragment          Generating    Expansion in Fragment Orbitals
  indx  incl.CFs)   Occup   Orb.Energy   FragmentType  Coeff.   Orbital     on Fragment
 --------------------------------------------------------------------------------------
     1       1      2.000   -4141.526 au  Pa            1.00      1 S               1
                        ( -112696.657 eV)
     2       2      2.000    -772.998 au  Pa            1.00      2 S               1
                        (  -21034.347 eV)
     3       3      2.000    -195.328 au  Pa            1.00      3 S               1
                        (   -5315.156 eV)
     4       4      2.000     -49.855 au  Pa            1.00      4 S               1
                        (   -1356.621 eV)
     5       5      2.000     -11.133 au  Pa            1.00      5 S               1
                        (    -302.952 eV)
     6       6      2.000      -1.795 au  Pa            1.00      6 S               1
                        (     -48.841 eV)
     7       7      2.000      -0.175 au  Pa            1.00      7 S               1
                        (      -4.760 eV)
     8       8       --         0.034 au  Pa            1.00      8 S               1
                        (       0.919 eV)
     9       9       --         0.339 au  Pa            1.00      9 S               1
                        (       9.238 eV)
    10      10       --         1.683 au  Pa            1.00     10 S               1
                        (      45.798 eV)
    11      11       --         8.710 au  Pa            1.00     11 S               1
                        (     237.014 eV)
    12      12       --        46.395 au  Pa            1.00     12 S               1
                        (    1262.476 eV)
    13      13       --      1052.783 au  Pa            1.00     13 S               1
                        (   28647.695 eV)
    14      14       --      5424.849 au  Pa            1.00     14 S               1
                        (  147617.662 eV)
    15      15       --     16328.088 au  Pa            1.00     15 S               1
                        (  444309.889 eV)
    16      16       --     46435.709 au  Pa            1.00     16 S               1
                        ( 1263579.939 eV)
    17      17      2.000    -645.265 au  Pa            1.00      1 P:x             1
                        (  -17558.565 eV)
    18      18      2.000    -159.642 au  Pa            1.00      2 P:x             1
                        (   -4344.092 eV)
    19      19      2.000     -38.162 au  Pa            1.00      3 P:x             1
                        (   -1038.447 eV)
    20      20      2.000      -7.518 au  Pa            1.00      4 P:x             1
                        (    -204.571 eV)
    21      21      2.000      -0.902 au  Pa            1.00      5 P:x             1
                        (     -24.533 eV)
    22      22       --        -0.009 au  Pa            1.00      6 P:x             1
                        (      -0.239 eV)
    23      23       --         0.410 au  Pa            1.00      7 P:x             1
                        (      11.153 eV)
    24      24       --         1.860 au  Pa            1.00      8 P:x             1
                        (      50.626 eV)
    25      25       --         7.599 au  Pa            1.00      9 P:x             1
                        (     206.767 eV)
    26      26       --        36.007 au  Pa            1.00     10 P:x             1
                        (     979.808 eV)
    27      27       --       178.692 au  Pa            1.00     11 P:x             1
                        (    4862.446 eV)
    28      28       --      1510.091 au  Pa            1.00     12 P:x             1
                        (   41091.664 eV)
    29      29       --     10784.724 au  Pa            1.00     13 P:x             1
                        (  293467.260 eV)
    30      30      2.000    -645.265 au  Pa            1.00      1 P:y             1
                        (  -17558.565 eV)
    31      31      2.000    -159.642 au  Pa            1.00      2 P:y             1
                        (   -4344.092 eV)
    32      32      2.000     -38.162 au  Pa            1.00      3 P:y             1
                        (   -1038.447 eV)
    33      33      2.000      -7.518 au  Pa            1.00      4 P:y             1
                        (    -204.571 eV)
    34      34      2.000      -0.902 au  Pa            1.00      5 P:y             1
                        (     -24.533 eV)
    35      35       --        -0.009 au  Pa            1.00      6 P:y             1
                        (      -0.239 eV)
    36      36       --         0.410 au  Pa            1.00      7 P:y             1
                        (      11.153 eV)
    37      37       --         1.860 au  Pa            1.00      8 P:y             1
                        (      50.626 eV)
    38      38       --         7.599 au  Pa            1.00      9 P:y             1
                        (     206.767 eV)
    39      39       --        36.007 au  Pa            1.00     10 P:y             1
                        (     979.808 eV)
    40      40       --       178.692 au  Pa            1.00     11 P:y             1
                        (    4862.446 eV)
    41      41       --      1510.091 au  Pa            1.00     12 P:y             1
                        (   41091.664 eV)
    42      42       --     10784.724 au  Pa            1.00     13 P:y             1
                        (  293467.260 eV)
    43      43      2.000    -645.265 au  Pa            1.00      1 P:z             1
                        (  -17558.565 eV)
    44      44      2.000    -159.642 au  Pa            1.00      2 P:z             1
                        (   -4344.092 eV)
    45      45      2.000     -38.162 au  Pa            1.00      3 P:z             1
                        (   -1038.447 eV)
    46      46      2.000      -7.518 au  Pa            1.00      4 P:z             1
                        (    -204.571 eV)
    47      47      2.000      -0.902 au  Pa            1.00      5 P:z             1
                        (     -24.533 eV)
    48      48       --        -0.009 au  Pa            1.00      6 P:z             1
                        (      -0.239 eV)
    49      49       --         0.410 au  Pa            1.00      7 P:z             1
                        (      11.153 eV)
    50      50       --         1.860 au  Pa            1.00      8 P:z             1
                        (      50.626 eV)
    51      51       --         7.599 au  Pa            1.00      9 P:z             1
                        (     206.767 eV)
    52      52       --        36.007 au  Pa            1.00     10 P:z             1
                        (     979.808 eV)
    53      53       --       178.692 au  Pa            1.00     11 P:z             1
                        (    4862.446 eV)
    54      54       --      1510.091 au  Pa            1.00     12 P:z             1
                        (   41091.664 eV)
    55      55       --     10784.724 au  Pa            1.00     13 P:z             1
                        (  293467.260 eV)
    56      56      2.000    -127.956 au  Pa            1.00      1 D:z2            1
                        (   -3481.863 eV)
    57      57      2.000     -26.098 au  Pa            1.00      2 D:z2            1
                        (    -710.150 eV)
    58      58      2.000      -3.589 au  Pa            1.00      3 D:z2            1
                        (     -97.672 eV)
    59      59      0.200      -0.066 au  Pa            1.00      4 D:z2            1
                        (      -1.800 eV)
    60      60       --         0.087 au  Pa            1.00      5 D:z2            1
                        (       2.364 eV)
    61      61       --         0.570 au  Pa            1.00      6 D:z2            1
                        (      15.503 eV)
    62      62       --         3.614 au  Pa            1.00      7 D:z2            1
                        (      98.350 eV)
    63      63       --        25.065 au  Pa            1.00      8 D:z2            1
                        (     682.063 eV)
    64      64       --       205.007 au  Pa            1.00      9 D:z2            1
                        (    5578.517 eV)
    65      65      2.000    -127.956 au  Pa            1.00      1 D:x2-y2         1
                        (   -3481.863 eV)
    66      66      2.000     -26.098 au  Pa            1.00      2 D:x2-y2         1
                        (    -710.150 eV)
    67      67      2.000      -3.589 au  Pa            1.00      3 D:x2-y2         1
                        (     -97.672 eV)
    68      68      0.200      -0.066 au  Pa            1.00      4 D:x2-y2         1
                        (      -1.800 eV)
    69      69       --         0.087 au  Pa            1.00      5 D:x2-y2         1
                        (       2.364 eV)
    70      70       --         0.570 au  Pa            1.00      6 D:x2-y2         1
                        (      15.503 eV)
    71      71       --         3.614 au  Pa            1.00      7 D:x2-y2         1
                        (      98.350 eV)
    72      72       --        25.065 au  Pa            1.00      8 D:x2-y2         1
                        (     682.063 eV)
    73      73       --       205.007 au  Pa            1.00      9 D:x2-y2         1
                        (    5578.517 eV)
    74      74      2.000    -127.956 au  Pa            1.00      1 D:xy            1
                        (   -3481.863 eV)
    75      75      2.000     -26.098 au  Pa            1.00      2 D:xy            1
                        (    -710.150 eV)
    76      76      2.000      -3.589 au  Pa            1.00      3 D:xy            1
                        (     -97.672 eV)
    77      77      0.200      -0.066 au  Pa            1.00      4 D:xy            1
                        (      -1.800 eV)
    78      78       --         0.087 au  Pa            1.00      5 D:xy            1
                        (       2.364 eV)
    79      79       --         0.570 au  Pa            1.00      6 D:xy            1
                        (      15.503 eV)
    80      80       --         3.614 au  Pa            1.00      7 D:xy            1
                        (      98.350 eV)
    81      81       --        25.065 au  Pa            1.00      8 D:xy            1
                        (     682.063 eV)
    82      82       --       205.007 au  Pa            1.00      9 D:xy            1
                        (    5578.517 eV)
    83      83      2.000    -127.956 au  Pa            1.00      1 D:xz            1
                        (   -3481.863 eV)
    84      84      2.000     -26.098 au  Pa            1.00      2 D:xz            1
                        (    -710.150 eV)
    85      85      2.000      -3.589 au  Pa            1.00      3 D:xz            1
                        (     -97.672 eV)
    86      86      0.200      -0.066 au  Pa            1.00      4 D:xz            1
                        (      -1.800 eV)
    87      87       --         0.087 au  Pa            1.00      5 D:xz            1
                        (       2.364 eV)
    88      88       --         0.570 au  Pa            1.00      6 D:xz            1
                        (      15.503 eV)
    89      89       --         3.614 au  Pa            1.00      7 D:xz            1
                        (      98.350 eV)
    90      90       --        25.065 au  Pa            1.00      8 D:xz            1
                        (     682.063 eV)
    91      91       --       205.007 au  Pa            1.00      9 D:xz            1
                        (    5578.517 eV)
    92      92      2.000    -127.956 au  Pa            1.00      1 D:yz            1
                        (   -3481.863 eV)
    93      93      2.000     -26.098 au  Pa            1.00      2 D:yz            1
                        (    -710.150 eV)
    94      94      2.000      -3.589 au  Pa            1.00      3 D:yz            1
                        (     -97.672 eV)
    95      95      0.200      -0.066 au  Pa            1.00      4 D:yz            1
                        (      -1.800 eV)
    96      96       --         0.087 au  Pa            1.00      5 D:yz            1
                        (       2.364 eV)
    97      97       --         0.570 au  Pa            1.00      6 D:yz            1
                        (      15.503 eV)
    98      98       --         3.614 au  Pa            1.00      7 D:yz            1
                        (      98.350 eV)
    99      99       --        25.065 au  Pa            1.00      8 D:yz            1
                        (     682.063 eV)
   100     100       --       205.007 au  Pa            1.00      9 D:yz            1
                        (    5578.517 eV)
   101     101      2.000     -13.166 au  Pa            1.00      1 F:z3            1
                        (    -358.254 eV)
   102     102      0.286      -0.038 au  Pa            1.00      2 F:z3            1
                        (      -1.040 eV)
   103     103       --         0.423 au  Pa            1.00      3 F:z3            1
                        (      11.518 eV)
   104     104       --         2.565 au  Pa            1.00      4 F:z3            1
                        (      69.799 eV)
   105     105       --        21.684 au  Pa            1.00      5 F:z3            1
                        (     590.042 eV)
   106     106      2.000     -13.166 au  Pa            1.00      1 F:z             1
                        (    -358.254 eV)
   107     107      0.286      -0.038 au  Pa            1.00      2 F:z             1
                        (      -1.040 eV)
   108     108       --         0.423 au  Pa            1.00      3 F:z             1
                        (      11.518 eV)
   109     109       --         2.565 au  Pa            1.00      4 F:z             1
                        (      69.799 eV)
   110     110       --        21.684 au  Pa            1.00      5 F:z             1
                        (     590.042 eV)
   111     111      2.000     -13.166 au  Pa            1.00      1 F:xyz           1
                        (    -358.254 eV)
   112     112      0.286      -0.038 au  Pa            1.00      2 F:xyz           1
                        (      -1.040 eV)
   113     113       --         0.423 au  Pa            1.00      3 F:xyz           1
                        (      11.518 eV)
   114     114       --         2.565 au  Pa            1.00      4 F:xyz           1
                        (      69.799 eV)
   115     115       --        21.684 au  Pa            1.00      5 F:xyz           1
                        (     590.042 eV)
   116     116      2.000     -13.166 au  Pa            1.00      1 F:z2x           1
                        (    -358.254 eV)
   117     117      0.286      -0.038 au  Pa            1.00      2 F:z2x           1
                        (      -1.040 eV)
   118     118       --         0.423 au  Pa            1.00      3 F:z2x           1
                        (      11.518 eV)
   119     119       --         2.565 au  Pa            1.00      4 F:z2x           1
                        (      69.799 eV)
   120     120       --        21.684 au  Pa            1.00      5 F:z2x           1
                        (     590.042 eV)
   121     121      2.000     -13.166 au  Pa            1.00      1 F:z2y           1
                        (    -358.254 eV)
   122     122      0.286      -0.038 au  Pa            1.00      2 F:z2y           1
                        (      -1.040 eV)
   123     123       --         0.423 au  Pa            1.00      3 F:z2y           1
                        (      11.518 eV)
   124     124       --         2.565 au  Pa            1.00      4 F:z2y           1
                        (      69.799 eV)
   125     125       --        21.684 au  Pa            1.00      5 F:z2y           1
                        (     590.042 eV)
   126     126      2.000     -13.166 au  Pa            1.00      1 F:x             1
                        (    -358.254 eV)
   127     127      0.286      -0.038 au  Pa            1.00      2 F:x             1
                        (      -1.040 eV)
   128     128       --         0.423 au  Pa            1.00      3 F:x             1
                        (      11.518 eV)
   129     129       --         2.565 au  Pa            1.00      4 F:x             1
                        (      69.799 eV)
   130     130       --        21.684 au  Pa            1.00      5 F:x             1
                        (     590.042 eV)
   131     131      2.000     -13.166 au  Pa            1.00      1 F:y             1
                        (    -358.254 eV)
   132     132      0.286      -0.038 au  Pa            1.00      2 F:y             1
                        (      -1.040 eV)
   133     133       --         0.423 au  Pa            1.00      3 F:y             1
                        (      11.518 eV)
   134     134       --         2.565 au  Pa            1.00      4 F:y             1
                        (      69.799 eV)
   135     135       --        21.684 au  Pa            1.00      5 F:y             1
                        (     590.042 eV)
   136     136      2.000    -102.119 au  Cl            1.00      1 S               2
                        (   -2778.789 eV)
   137     137      2.000      -9.646 au  Cl            1.00      2 S               2
                        (    -262.471 eV)
   138     138      2.000      -0.854 au  Cl            1.00      3 S               2
                        (     -23.229 eV)
   139     139       --         0.235 au  Cl            1.00      4 S               2
                        (       6.405 eV)
   140     140       --         2.083 au  Cl            1.00      5 S               2
                        (      56.675 eV)
   141     141       --        12.853 au  Cl            1.00      6 S               2
                        (     349.740 eV)
   142     142       --       206.451 au  Cl            1.00      7 S               2
                        (    5617.823 eV)
   143     143      2.000      -7.311 au  Cl            1.00      1 P:x             2
                        (    -198.932 eV)
   144     144      1.667      -0.356 au  Cl            1.00      2 P:x             2
                        (      -9.674 eV)
   145     145       --         0.265 au  Cl            1.00      3 P:x             2
                        (       7.199 eV)
   146     146       --         2.208 au  Cl            1.00      4 P:x             2
                        (      60.081 eV)
   147     147       --        19.015 au  Cl            1.00      5 P:x             2
                        (     517.415 eV)
   148     148      2.000      -7.311 au  Cl            1.00      1 P:y             2
                        (    -198.932 eV)
   149     149      1.667      -0.356 au  Cl            1.00      2 P:y             2
                        (      -9.674 eV)
   150     150       --         0.265 au  Cl            1.00      3 P:y             2
                        (       7.199 eV)
   151     151       --         2.208 au  Cl            1.00      4 P:y             2
                        (      60.081 eV)
   152     152       --        19.015 au  Cl            1.00      5 P:y             2
                        (     517.415 eV)
   153     153      2.000      -7.311 au  Cl            1.00      1 P:z             2
                        (    -198.932 eV)
   154     154      1.667      -0.356 au  Cl            1.00      2 P:z             2
                        (      -9.674 eV)
   155     155       --         0.265 au  Cl            1.00      3 P:z             2
                        (       7.199 eV)
   156     156       --         2.208 au  Cl            1.00      4 P:z             2
                        (      60.081 eV)
   157     157       --        19.015 au  Cl            1.00      5 P:z             2
                        (     517.415 eV)
   158     158       --         0.444 au  Cl            1.00      1 D:z2            2
                        (      12.084 eV)
   159     159       --         0.444 au  Cl            1.00      1 D:x2-y2         2
                        (      12.084 eV)
   160     160       --         0.444 au  Cl            1.00      1 D:xy            2
                        (      12.084 eV)
   161     161       --         0.444 au  Cl            1.00      1 D:xz            2
                        (      12.084 eV)
   162     162       --         0.444 au  Cl            1.00      1 D:yz            2
                        (      12.084 eV)
   163     163       --         1.251 au  Cl            1.00      1 F:z3            2
                        (      34.044 eV)
   164     164       --         1.251 au  Cl            1.00      1 F:z             2
                        (      34.044 eV)
   165     165       --         1.251 au  Cl            1.00      1 F:xyz           2
                        (      34.044 eV)
   166     166       --         1.251 au  Cl            1.00      1 F:z2x           2
                        (      34.044 eV)
   167     167       --         1.251 au  Cl            1.00      1 F:z2y           2
                        (      34.044 eV)
   168     168       --         1.251 au  Cl            1.00      1 F:x             2
                        (      34.044 eV)
   169     169       --         1.251 au  Cl            1.00      1 F:y             2
                        (      34.044 eV)
   170     170      2.000    -102.119 au  Cl            1.00      1 S               3
                        (   -2778.789 eV)
   171     171      2.000      -9.646 au  Cl            1.00      2 S               3
                        (    -262.471 eV)
   172     172      2.000      -0.854 au  Cl            1.00      3 S               3
                        (     -23.229 eV)
   173     173       --         0.235 au  Cl            1.00      4 S               3
                        (       6.405 eV)
   174     174       --         2.083 au  Cl            1.00      5 S               3
                        (      56.675 eV)
   175     175       --        12.853 au  Cl            1.00      6 S               3
                        (     349.740 eV)
   176     176       --       206.451 au  Cl            1.00      7 S               3
                        (    5617.823 eV)
   177     177      2.000      -7.311 au  Cl            1.00      1 P:x             3
                        (    -198.932 eV)
   178     178      1.667      -0.356 au  Cl            1.00      2 P:x             3
                        (      -9.674 eV)
   179     179       --         0.265 au  Cl            1.00      3 P:x             3
                        (       7.199 eV)
   180     180       --         2.208 au  Cl            1.00      4 P:x             3
                        (      60.081 eV)
   181     181       --        19.015 au  Cl            1.00      5 P:x             3
                        (     517.415 eV)
   182     182      2.000      -7.311 au  Cl            1.00      1 P:y             3
                        (    -198.932 eV)
   183     183      1.667      -0.356 au  Cl            1.00      2 P:y             3
                        (      -9.674 eV)
   184     184       --         0.265 au  Cl            1.00      3 P:y             3
                        (       7.199 eV)
   185     185       --         2.208 au  Cl            1.00      4 P:y             3
                        (      60.081 eV)
   186     186       --        19.015 au  Cl            1.00      5 P:y             3
                        (     517.415 eV)
   187     187      2.000      -7.311 au  Cl            1.00      1 P:z             3
                        (    -198.932 eV)
   188     188      1.667      -0.356 au  Cl            1.00      2 P:z             3
                        (      -9.674 eV)
   189     189       --         0.265 au  Cl            1.00      3 P:z             3
                        (       7.199 eV)
   190     190       --         2.208 au  Cl            1.00      4 P:z             3
                        (      60.081 eV)
   191     191       --        19.015 au  Cl            1.00      5 P:z             3
                        (     517.415 eV)
   192     192       --         0.444 au  Cl            1.00      1 D:z2            3
                        (      12.084 eV)
   193     193       --         0.444 au  Cl            1.00      1 D:x2-y2         3
                        (      12.084 eV)
   194     194       --         0.444 au  Cl            1.00      1 D:xy            3
                        (      12.084 eV)
   195     195       --         0.444 au  Cl            1.00      1 D:xz            3
                        (      12.084 eV)
   196     196       --         0.444 au  Cl            1.00      1 D:yz            3
                        (      12.084 eV)
   197     197       --         1.251 au  Cl            1.00      1 F:z3            3
                        (      34.044 eV)
   198     198       --         1.251 au  Cl            1.00      1 F:z             3
                        (      34.044 eV)
   199     199       --         1.251 au  Cl            1.00      1 F:xyz           3
                        (      34.044 eV)
   200     200       --         1.251 au  Cl            1.00      1 F:z2x           3
                        (      34.044 eV)
   201     201       --         1.251 au  Cl            1.00      1 F:z2y           3
                        (      34.044 eV)
   202     202       --         1.251 au  Cl            1.00      1 F:x             3
                        (      34.044 eV)
   203     203       --         1.251 au  Cl            1.00      1 F:y             3
                        (      34.044 eV)
   204     204      2.000    -102.119 au  Cl            1.00      1 S               4
                        (   -2778.789 eV)
   205     205      2.000      -9.646 au  Cl            1.00      2 S               4
                        (    -262.471 eV)
   206     206      2.000      -0.854 au  Cl            1.00      3 S               4
                        (     -23.229 eV)
   207     207       --         0.235 au  Cl            1.00      4 S               4
                        (       6.405 eV)
   208     208       --         2.083 au  Cl            1.00      5 S               4
                        (      56.675 eV)
   209     209       --        12.853 au  Cl            1.00      6 S               4
                        (     349.740 eV)
   210     210       --       206.451 au  Cl            1.00      7 S               4
                        (    5617.823 eV)
   211     211      2.000      -7.311 au  Cl            1.00      1 P:x             4
                        (    -198.932 eV)
   212     212      1.667      -0.356 au  Cl            1.00      2 P:x             4
                        (      -9.674 eV)
   213     213       --         0.265 au  Cl            1.00      3 P:x             4
                        (       7.199 eV)
   214     214       --         2.208 au  Cl            1.00      4 P:x             4
                        (      60.081 eV)
   215     215       --        19.015 au  Cl            1.00      5 P:x             4
                        (     517.415 eV)
   216     216      2.000      -7.311 au  Cl            1.00      1 P:y             4
                        (    -198.932 eV)
   217     217      1.667      -0.356 au  Cl            1.00      2 P:y             4
                        (      -9.674 eV)
   218     218       --         0.265 au  Cl            1.00      3 P:y             4
                        (       7.199 eV)
   219     219       --         2.208 au  Cl            1.00      4 P:y             4
                        (      60.081 eV)
   220     220       --        19.015 au  Cl            1.00      5 P:y             4
                        (     517.415 eV)
   221     221      2.000      -7.311 au  Cl            1.00      1 P:z             4
                        (    -198.932 eV)
   222     222      1.667      -0.356 au  Cl            1.00      2 P:z             4
                        (      -9.674 eV)
   223     223       --         0.265 au  Cl            1.00      3 P:z             4
                        (       7.199 eV)
   224     224       --         2.208 au  Cl            1.00      4 P:z             4
                        (      60.081 eV)
   225     225       --        19.015 au  Cl            1.00      5 P:z             4
                        (     517.415 eV)
   226     226       --         0.444 au  Cl            1.00      1 D:z2            4
                        (      12.084 eV)
   227     227       --         0.444 au  Cl            1.00      1 D:x2-y2         4
                        (      12.084 eV)
   228     228       --         0.444 au  Cl            1.00      1 D:xy            4
                        (      12.084 eV)
   229     229       --         0.444 au  Cl            1.00      1 D:xz            4
                        (      12.084 eV)
   230     230       --         0.444 au  Cl            1.00      1 D:yz            4
                        (      12.084 eV)
   231     231       --         1.251 au  Cl            1.00      1 F:z3            4
                        (      34.044 eV)
   232     232       --         1.251 au  Cl            1.00      1 F:z             4
                        (      34.044 eV)
   233     233       --         1.251 au  Cl            1.00      1 F:xyz           4
                        (      34.044 eV)
   234     234       --         1.251 au  Cl            1.00      1 F:z2x           4
                        (      34.044 eV)
   235     235       --         1.251 au  Cl            1.00      1 F:z2y           4
                        (      34.044 eV)
   236     236       --         1.251 au  Cl            1.00      1 F:x             4
                        (      34.044 eV)
   237     237       --         1.251 au  Cl            1.00      1 F:y             4
                        (      34.044 eV)
   238     238      2.000    -102.119 au  Cl            1.00      1 S               5
                        (   -2778.789 eV)
   239     239      2.000      -9.646 au  Cl            1.00      2 S               5
                        (    -262.471 eV)
   240     240      2.000      -0.854 au  Cl            1.00      3 S               5
                        (     -23.229 eV)
   241     241       --         0.235 au  Cl            1.00      4 S               5
                        (       6.405 eV)
   242     242       --         2.083 au  Cl            1.00      5 S               5
                        (      56.675 eV)
   243     243       --        12.853 au  Cl            1.00      6 S               5
                        (     349.740 eV)
   244     244       --       206.451 au  Cl            1.00      7 S               5
                        (    5617.823 eV)
   245     245      2.000      -7.311 au  Cl            1.00      1 P:x             5
                        (    -198.932 eV)
   246     246      1.667      -0.356 au  Cl            1.00      2 P:x             5
                        (      -9.674 eV)
   247     247       --         0.265 au  Cl            1.00      3 P:x             5
                        (       7.199 eV)
   248     248       --         2.208 au  Cl            1.00      4 P:x             5
                        (      60.081 eV)
   249     249       --        19.015 au  Cl            1.00      5 P:x             5
                        (     517.415 eV)
   250     250      2.000      -7.311 au  Cl            1.00      1 P:y             5
                        (    -198.932 eV)
   251     251      1.667      -0.356 au  Cl            1.00      2 P:y             5
                        (      -9.674 eV)
   252     252       --         0.265 au  Cl            1.00      3 P:y             5
                        (       7.199 eV)
   253     253       --         2.208 au  Cl            1.00      4 P:y             5
                        (      60.081 eV)
   254     254       --        19.015 au  Cl            1.00      5 P:y             5
                        (     517.415 eV)
   255     255      2.000      -7.311 au  Cl            1.00      1 P:z             5
                        (    -198.932 eV)
   256     256      1.667      -0.356 au  Cl            1.00      2 P:z             5
                        (      -9.674 eV)
   257     257       --         0.265 au  Cl            1.00      3 P:z             5
                        (       7.199 eV)
   258     258       --         2.208 au  Cl            1.00      4 P:z             5
                        (      60.081 eV)
   259     259       --        19.015 au  Cl            1.00      5 P:z             5
                        (     517.415 eV)
   260     260       --         0.444 au  Cl            1.00      1 D:z2            5
                        (      12.084 eV)
   261     261       --         0.444 au  Cl            1.00      1 D:x2-y2         5
                        (      12.084 eV)
   262     262       --         0.444 au  Cl            1.00      1 D:xy            5
                        (      12.084 eV)
   263     263       --         0.444 au  Cl            1.00      1 D:xz            5
                        (      12.084 eV)
   264     264       --         0.444 au  Cl            1.00      1 D:yz            5
                        (      12.084 eV)
   265     265       --         1.251 au  Cl            1.00      1 F:z3            5
                        (      34.044 eV)
   266     266       --         1.251 au  Cl            1.00      1 F:z             5
                        (      34.044 eV)
   267     267       --         1.251 au  Cl            1.00      1 F:xyz           5
                        (      34.044 eV)
   268     268       --         1.251 au  Cl            1.00      1 F:z2x           5
                        (      34.044 eV)
   269     269       --         1.251 au  Cl            1.00      1 F:z2y           5
                        (      34.044 eV)
   270     270       --         1.251 au  Cl            1.00      1 F:x             5
                        (      34.044 eV)
   271     271       --         1.251 au  Cl            1.00      1 F:y             5
                        (      34.044 eV)
   272     272      2.000     -19.396 au  O             1.00      1 S               6
                        (    -527.802 eV)
   273     273      2.000      -0.999 au  O             1.00      2 S               6
                        (     -27.198 eV)
   274     274       --         0.856 au  O             1.00      3 S               6
                        (      23.286 eV)
   275     275       --        13.669 au  O             1.00      4 S               6
                        (     371.949 eV)
   276     276       --       122.368 au  O             1.00      5 S               6
                        (    3329.795 eV)
   277     277      1.333      -0.366 au  O             1.00      1 P:x             6
                        (      -9.955 eV)
   278     278       --         0.397 au  O             1.00      2 P:x             6
                        (      10.811 eV)
   279     279       --         3.979 au  O             1.00      3 P:x             6
                        (     108.277 eV)
   280     280      1.333      -0.366 au  O             1.00      1 P:y             6
                        (      -9.955 eV)
   281     281       --         0.397 au  O             1.00      2 P:y             6
                        (      10.811 eV)
   282     282       --         3.979 au  O             1.00      3 P:y             6
                        (     108.277 eV)
   283     283      1.333      -0.366 au  O             1.00      1 P:z             6
                        (      -9.955 eV)
   284     284       --         0.397 au  O             1.00      2 P:z             6
                        (      10.811 eV)
   285     285       --         3.979 au  O             1.00      3 P:z             6
                        (     108.277 eV)
   286     286       --         1.128 au  O             1.00      1 D:z2            6
                        (      30.706 eV)
   287     287       --         1.128 au  O             1.00      1 D:x2-y2         6
                        (      30.706 eV)
   288     288       --         1.128 au  O             1.00      1 D:xy            6
                        (      30.706 eV)
   289     289       --         1.128 au  O             1.00      1 D:xz            6
                        (      30.706 eV)
   290     290       --         1.128 au  O             1.00      1 D:yz            6
                        (      30.706 eV)
   291     291       --         3.446 au  O             1.00      1 F:z3            6
                        (      93.771 eV)
   292     292       --         3.446 au  O             1.00      1 F:z             6
                        (      93.771 eV)
   293     293       --         3.446 au  O             1.00      1 F:xyz           6
                        (      93.771 eV)
   294     294       --         3.446 au  O             1.00      1 F:z2x           6
                        (      93.771 eV)
   295     295       --         3.446 au  O             1.00      1 F:z2y           6
                        (      93.771 eV)
   296     296       --         3.446 au  O             1.00      1 F:x             6
                        (      93.771 eV)
   297     297       --         3.446 au  O             1.00      1 F:y             6
                        (      93.771 eV)
   298     298      2.000     -19.396 au  O             1.00      1 S               7
                        (    -527.802 eV)
   299     299      2.000      -0.999 au  O             1.00      2 S               7
                        (     -27.198 eV)
   300     300       --         0.856 au  O             1.00      3 S               7
                        (      23.286 eV)
   301     301       --        13.669 au  O             1.00      4 S               7
                        (     371.949 eV)
   302     302       --       122.368 au  O             1.00      5 S               7
                        (    3329.795 eV)
   303     303      1.333      -0.366 au  O             1.00      1 P:x             7
                        (      -9.955 eV)
   304     304       --         0.397 au  O             1.00      2 P:x             7
                        (      10.811 eV)
   305     305       --         3.979 au  O             1.00      3 P:x             7
                        (     108.277 eV)
   306     306      1.333      -0.366 au  O             1.00      1 P:y             7
                        (      -9.955 eV)
   307     307       --         0.397 au  O             1.00      2 P:y             7
                        (      10.811 eV)
   308     308       --         3.979 au  O             1.00      3 P:y             7
                        (     108.277 eV)
   309     309      1.333      -0.366 au  O             1.00      1 P:z             7
                        (      -9.955 eV)
   310     310       --         0.397 au  O             1.00      2 P:z             7
                        (      10.811 eV)
   311     311       --         3.979 au  O             1.00      3 P:z             7
                        (     108.277 eV)
   312     312       --         1.128 au  O             1.00      1 D:z2            7
                        (      30.706 eV)
   313     313       --         1.128 au  O             1.00      1 D:x2-y2         7
                        (      30.706 eV)
   314     314       --         1.128 au  O             1.00      1 D:xy            7
                        (      30.706 eV)
   315     315       --         1.128 au  O             1.00      1 D:xz            7
                        (      30.706 eV)
   316     316       --         1.128 au  O             1.00      1 D:yz            7
                        (      30.706 eV)
   317     317       --         3.446 au  O             1.00      1 F:z3            7
                        (      93.771 eV)
   318     318       --         3.446 au  O             1.00      1 F:z             7
                        (      93.771 eV)
   319     319       --         3.446 au  O             1.00      1 F:xyz           7
                        (      93.771 eV)
   320     320       --         3.446 au  O             1.00      1 F:z2x           7
                        (      93.771 eV)
   321     321       --         3.446 au  O             1.00      1 F:z2y           7
                        (      93.771 eV)
   322     322       --         3.446 au  O             1.00      1 F:x             7
                        (      93.771 eV)
   323     323       --         3.446 au  O             1.00      1 F:y             7
                        (      93.771 eV)
   324     324      2.000     -19.396 au  O             1.00      1 S               8
                        (    -527.802 eV)
   325     325      2.000      -0.999 au  O             1.00      2 S               8
                        (     -27.198 eV)
   326     326       --         0.856 au  O             1.00      3 S               8
                        (      23.286 eV)
   327     327       --        13.669 au  O             1.00      4 S               8
                        (     371.949 eV)
   328     328       --       122.368 au  O             1.00      5 S               8
                        (    3329.795 eV)
   329     329      1.333      -0.366 au  O             1.00      1 P:x             8
                        (      -9.955 eV)
   330     330       --         0.397 au  O             1.00      2 P:x             8
                        (      10.811 eV)
   331     331       --         3.979 au  O             1.00      3 P:x             8
                        (     108.277 eV)
   332     332      1.333      -0.366 au  O             1.00      1 P:y             8
                        (      -9.955 eV)
   333     333       --         0.397 au  O             1.00      2 P:y             8
                        (      10.811 eV)
   334     334       --         3.979 au  O             1.00      3 P:y             8
                        (     108.277 eV)
   335     335      1.333      -0.366 au  O             1.00      1 P:z             8
                        (      -9.955 eV)
   336     336       --         0.397 au  O             1.00      2 P:z             8
                        (      10.811 eV)
   337     337       --         3.979 au  O             1.00      3 P:z             8
                        (     108.277 eV)
   338     338       --         1.128 au  O             1.00      1 D:z2            8
                        (      30.706 eV)
   339     339       --         1.128 au  O             1.00      1 D:x2-y2         8
                        (      30.706 eV)
   340     340       --         1.128 au  O             1.00      1 D:xy            8
                        (      30.706 eV)
   341     341       --         1.128 au  O             1.00      1 D:xz            8
                        (      30.706 eV)
   342     342       --         1.128 au  O             1.00      1 D:yz            8
                        (      30.706 eV)
   343     343       --         3.446 au  O             1.00      1 F:z3            8
                        (      93.771 eV)
   344     344       --         3.446 au  O             1.00      1 F:z             8
                        (      93.771 eV)
   345     345       --         3.446 au  O             1.00      1 F:xyz           8
                        (      93.771 eV)
   346     346       --         3.446 au  O             1.00      1 F:z2x           8
                        (      93.771 eV)
   347     347       --         3.446 au  O             1.00      1 F:z2y           8
                        (      93.771 eV)
   348     348       --         3.446 au  O             1.00      1 F:x             8
                        (      93.771 eV)
   349     349       --         3.446 au  O             1.00      1 F:y             8
                        (      93.771 eV)
   350     350      1.000      -0.242 au  H             1.00      1 S               9
                        (      -6.582 eV)
   351     351       --         0.113 au  H             1.00      2 S               9
                        (       3.073 eV)
   352     352       --         1.599 au  H             1.00      3 S               9
                        (      43.500 eV)
   353     353       --         0.445 au  H             1.00      1 P:x             9
                        (      12.103 eV)
   354     354       --         0.445 au  H             1.00      1 P:y             9
                        (      12.103 eV)
   355     355       --         0.445 au  H             1.00      1 P:z             9
                        (      12.103 eV)
   356     356       --         2.628 au  H             1.00      1 D:z2            9
                        (      71.505 eV)
   357     357       --         2.628 au  H             1.00      1 D:x2-y2         9
                        (      71.505 eV)
   358     358       --         2.628 au  H             1.00      1 D:xy            9
                        (      71.505 eV)
   359     359       --         2.628 au  H             1.00      1 D:xz            9
                        (      71.505 eV)
   360     360       --         2.628 au  H             1.00      1 D:yz            9
                        (      71.505 eV)
   361     361      1.000      -0.242 au  H             1.00      1 S              10
                        (      -6.582 eV)
   362     362       --         0.113 au  H             1.00      2 S              10
                        (       3.073 eV)
   363     363       --         1.599 au  H             1.00      3 S              10
                        (      43.500 eV)
   364     364       --         0.445 au  H             1.00      1 P:x            10
                        (      12.103 eV)
   365     365       --         0.445 au  H             1.00      1 P:y            10
                        (      12.103 eV)
   366     366       --         0.445 au  H             1.00      1 P:z            10
                        (      12.103 eV)
   367     367       --         2.628 au  H             1.00      1 D:z2           10
                        (      71.505 eV)
   368     368       --         2.628 au  H             1.00      1 D:x2-y2        10
                        (      71.505 eV)
   369     369       --         2.628 au  H             1.00      1 D:xy           10
                        (      71.505 eV)
   370     370       --         2.628 au  H             1.00      1 D:xz           10
                        (      71.505 eV)
   371     371       --         2.628 au  H             1.00      1 D:yz           10
                        (      71.505 eV)
   372     372      1.000      -0.242 au  H             1.00      1 S              11
                        (      -6.582 eV)
   373     373       --         0.113 au  H             1.00      2 S              11
                        (       3.073 eV)
   374     374       --         1.599 au  H             1.00      3 S              11
                        (      43.500 eV)
   375     375       --         0.445 au  H             1.00      1 P:x            11
                        (      12.103 eV)
   376     376       --         0.445 au  H             1.00      1 P:y            11
                        (      12.103 eV)
   377     377       --         0.445 au  H             1.00      1 P:z            11
                        (      12.103 eV)
   378     378       --         2.628 au  H             1.00      1 D:z2           11
                        (      71.505 eV)
   379     379       --         2.628 au  H             1.00      1 D:x2-y2        11
                        (      71.505 eV)
   380     380       --         2.628 au  H             1.00      1 D:xy           11
                        (      71.505 eV)
   381     381       --         2.628 au  H             1.00      1 D:xz           11
                        (      71.505 eV)
   382     382       --         2.628 au  H             1.00      1 D:yz           11
                        (      71.505 eV)
   383     383      1.000      -0.242 au  H             1.00      1 S              12
                        (      -6.582 eV)
   384     384       --         0.113 au  H             1.00      2 S              12
                        (       3.073 eV)
   385     385       --         1.599 au  H             1.00      3 S              12
                        (      43.500 eV)
   386     386       --         0.445 au  H             1.00      1 P:x            12
                        (      12.103 eV)
   387     387       --         0.445 au  H             1.00      1 P:y            12
                        (      12.103 eV)
   388     388       --         0.445 au  H             1.00      1 P:z            12
                        (      12.103 eV)
   389     389       --         2.628 au  H             1.00      1 D:z2           12
                        (      71.505 eV)
   390     390       --         2.628 au  H             1.00      1 D:x2-y2        12
                        (      71.505 eV)
   391     391       --         2.628 au  H             1.00      1 D:xy           12
                        (      71.505 eV)
   392     392       --         2.628 au  H             1.00      1 D:xz           12
                        (      71.505 eV)
   393     393       --         2.628 au  H             1.00      1 D:yz           12
                        (      71.505 eV)



 ================================
 (Slater-type)  F U N C T I O N S  ***  (Basis and Fit)  ***
 ================================
  

 Atom Type    1  (Pa)
 ==============

 Valence Basis Sets:  43
 -----------------------
   1 S 1028.000000
   1 S  240.000000
   1 S  107.000000
   2 S  131.500000
   2 S   46.500000
   3 S   59.100000
   3 S   25.450000
   4 S   15.550000
   4 S   11.050000
   5 S   10.200000
   5 S    7.100000
   6 S    4.950000
   6 S    3.250000
   7 S    2.350000
   7 S    1.550000
   7 S    1.020000
   2 P  240.000000
   2 P   84.000000
   2 P   43.600000
   3 P   24.750000
   3 P   17.850000
   4 P   17.650000
   4 P   12.100000
   5 P    8.500000
   5 P    5.900000
   6 P    4.400000
   6 P    3.000000
   6 P    2.100000
   3 D   33.750000
   3 D   21.750000
   4 D   15.300000
   4 D   10.450000
   5 D    7.150000
   5 D    4.600000
   6 D    3.000000
   6 D    1.700000
   6 D    0.980000
   4 F   17.100000
   4 F    9.350000
   5 F    5.850000
   5 F    3.150000
   5 F    1.550000
   7 P    1.550000

 Charge Fitting Sets (for the computation of the Coulomb Potential):  87
 -----------------------------------------------------------------------
   1 S 2056.000000
   1 S 1549.519000
   1 S 1167.806000
   1 S  880.126000
   1 S  663.313000
   1 S  499.911000
   1 S  376.761000
   1 S  283.949000
   1 S  214.000000
   1 S  127.280000
   2 S  140.220000
   2 S   93.850000
   3 S   92.230000
   3 S   65.710000
   4 S   61.900000
   4 S   45.910000
   5 S   42.420000
   5 S   32.370000
   6 S   29.610000
   6 S   23.090000
   7 S   21.000000
   7 S   16.670000
   8 S   15.120000
   8 S   12.170000
   9 S   11.020000
   9 S    8.970000
  10 S    8.120000
  10 S    6.680000
  11 S    6.050000
  11 S    5.020000
  12 S    4.550000
  12 S    3.800000
  12 S    3.180000
  13 S    2.880000
  13 S    2.420000
  13 S    2.040000
   2 P  150.600000
   3 P  125.870000
   4 P  103.260000
   5 P   84.350000
   6 P   68.960000
   7 P   56.560000
   7 P   40.600000
   8 P   33.430000
   8 P   24.490000
   9 P   20.250000
   9 P   15.090000
  10 P   12.530000
  10 P    9.470000
  11 P    7.900000
  11 P    6.040000
  12 P    5.060000
  12 P    3.910000
  13 P    3.290000
  13 P    2.570000
   3 D  128.750000
   4 D   91.090000
   5 D   65.210000
   6 D   47.270000
   7 D   34.690000
   8 D   25.740000
   9 D   19.290000
   9 D   13.060000
  10 D    9.880000
  10 D    6.820000
  11 D    5.210000
  11 D    3.650000
  12 D    2.810000
  12 D    2.000000
   4 F  116.350000
   5 F   72.360000
   6 F   46.140000
   7 F   30.070000
   8 F   19.970000
   9 F   13.480000
  10 F    9.240000
  10 F    5.790000
  11 F    4.020000
  11 F    2.570000
   5 G   52.950000
   6 G   31.380000
   7 G   19.110000
   8 G   11.920000
   9 G    7.580000
  10 G    4.910000
  11 G    3.230000
  11 G    1.960000

 Atom Type    2  (Cl)
 ==============

 Valence Basis Sets:  14
 -----------------------
   1 S   20.300000
   1 S   15.250000
   2 S    6.250000
   2 S    4.450000
   2 P    8.850000
   2 P    5.050000
   3 S    3.450000
   3 S    2.300000
   3 S    1.600000
   3 P    3.350000
   3 P    2.050000
   3 P    1.200000
   3 D    2.000000
   4 F    2.000000

 Charge Fitting Sets (for the computation of the Coulomb Potential):  30
 -----------------------------------------------------------------------
   1 S   40.600000
   1 S   24.830000
   2 S   28.080000
   2 S   19.200000
   3 S   19.250000
   3 S   13.970000
   3 S   10.130000
   4 S    9.710000
   4 S    7.320000
   4 S    5.510000
   5 S    5.170000
   5 S    4.000000
   5 S    3.100000
   5 S    2.400000
   2 P   29.150000
   3 P   21.740000
   4 P   16.160000
   4 P    9.600000
   5 P    7.180000
   5 P    4.480000
   5 P    2.800000
   3 D   21.950000
   4 D   15.750000
   4 D    9.040000
   5 D    6.550000
   5 D    3.960000
   5 D    2.400000
   4 F    5.000000
   4 F    3.000000
   5 G    3.500000

 Atom Type    3  (O)
 ==============

 Valence Basis Sets:  10
 -----------------------
   1 S    9.800000
   1 S    6.800000
   2 S    7.580000
   2 S    2.880000
   2 S    1.720000
   2 P    4.080000
   2 P    2.080000
   2 P    1.120000
   3 D    2.000000
   4 F    3.000000

 Charge Fitting Sets (for the computation of the Coulomb Potential):  22
 -----------------------------------------------------------------------
   1 S   19.600000
   2 S   22.600000
   2 S   15.680000
   2 S   10.890000
   2 S    7.560000
   3 S    7.690000
   3 S    5.650000
   3 S    4.150000
   3 S    3.050000
   3 S    2.240000
   2 P   12.860000
   2 P    7.680000
   3 P    6.780000
   3 P    4.390000
   3 P    2.840000
   3 D    8.800000
   3 D    5.580000
   3 D    3.530000
   3 D    2.240000
   4 F    6.200000
   4 F    3.700000
   5 G    4.500000

 Atom Type    4  (H)
 ==============

 Valence Basis Sets:   5
 -----------------------
   1 S    0.690000
   1 S    0.920000
   1 S    1.580000
   2 P    1.250000
   3 D    2.500000

 Charge Fitting Sets (for the computation of the Coulomb Potential):  11
 -----------------------------------------------------------------------
   1 S    3.160000
   1 S    2.090000
   1 S    1.380000
   2 S    1.500000
   2 P    4.000000
   2 P    2.650000
   2 P    1.750000
   3 D    4.000000
   3 D    2.500000
   4 F    3.000000
   5 G    4.000000


 BAS: List of all Elementary Cartesian Basis Functions
 =====================================================

 The numbering in the list below (to the right of the function characteristics) is referred
 to in print-outs of MO eigenvectors and Mulliken populations in the BAS representation
 (as contrasted to the SFO representation).

 Notes:
 1. The functions are characterized by a polynomial prefactor (powers of x,y,z and r) and
    an exponential decay factor alpha.
 2. Since the basis sets are specific for an atom TYPE, the individual functions occur on
    all atoms of that type.
 3. The word 'Core' in the left margin signals that it is a Core Function (CF) : not a
    degree of freedom in the valence set, but only used to ensure orthogonalization of
    the other valence basis functions on the frozen Core Orbitals.


 (power of) X  Y  Z  R     Alpha  on Atom
            ==========     =====     ==========

 Pa                                   1
                                  ---------------------------------------------------------------------------
            0  0  0  0  1028.000      1
            0  0  0  0   240.000      2
            0  0  0  0   107.000      3
            0  0  0  1   131.500      4
            0  0  0  1    46.500      5
            0  0  0  2    59.100      6
            0  0  0  2    25.450      7
            0  0  0  3    15.550      8
            0  0  0  3    11.050      9
            0  0  0  4    10.200     10
            0  0  0  4     7.100     11
            0  0  0  5     4.950     12
            0  0  0  5     3.250     13
            0  0  0  6     2.350     14
            0  0  0  6     1.550     15
            0  0  0  6     1.020     16
            1  0  0  0   240.000     17
            0  1  0  0   240.000     18
            0  0  1  0   240.000     19
            1  0  0  0    84.000     20
            0  1  0  0    84.000     21
            0  0  1  0    84.000     22
            1  0  0  0    43.600     23
            0  1  0  0    43.600     24
            0  0  1  0    43.600     25
            1  0  0  1    24.750     26
            0  1  0  1    24.750     27
            0  0  1  1    24.750     28
            1  0  0  1    17.850     29
            0  1  0  1    17.850     30
            0  0  1  1    17.850     31
            1  0  0  2    17.650     32
            0  1  0  2    17.650     33
            0  0  1  2    17.650     34
            1  0  0  2    12.100     35
            0  1  0  2    12.100     36
            0  0  1  2    12.100     37
            1  0  0  3     8.500     38
            0  1  0  3     8.500     39
            0  0  1  3     8.500     40
            1  0  0  3     5.900     41
            0  1  0  3     5.900     42
            0  0  1  3     5.900     43
            1  0  0  4     4.400     44
            0  1  0  4     4.400     45
            0  0  1  4     4.400     46
            1  0  0  4     3.000     47
            0  1  0  4     3.000     48
            0  0  1  4     3.000     49
            1  0  0  4     2.100     50
            0  1  0  4     2.100     51
            0  0  1  4     2.100     52
            2  0  0  0    33.750     53
            1  1  0  0    33.750     54
            1  0  1  0    33.750     55
            0  2  0  0    33.750     56
            0  1  1  0    33.750     57
            0  0  2  0    33.750     58
            2  0  0  0    21.750     59
            1  1  0  0    21.750     60
            1  0  1  0    21.750     61
            0  2  0  0    21.750     62
            0  1  1  0    21.750     63
            0  0  2  0    21.750     64
            2  0  0  1    15.300     65
            1  1  0  1    15.300     66
            1  0  1  1    15.300     67
            0  2  0  1    15.300     68
            0  1  1  1    15.300     69
            0  0  2  1    15.300     70
            2  0  0  1    10.450     71
            1  1  0  1    10.450     72
            1  0  1  1    10.450     73
            0  2  0  1    10.450     74
            0  1  1  1    10.450     75
            0  0  2  1    10.450     76
            2  0  0  2     7.150     77
            1  1  0  2     7.150     78
            1  0  1  2     7.150     79
            0  2  0  2     7.150     80
            0  1  1  2     7.150     81
            0  0  2  2     7.150     82
            2  0  0  2     4.600     83
            1  1  0  2     4.600     84
            1  0  1  2     4.600     85
            0  2  0  2     4.600     86
            0  1  1  2     4.600     87
            0  0  2  2     4.600     88
            2  0  0  3     3.000     89
            1  1  0  3     3.000     90
            1  0  1  3     3.000     91
            0  2  0  3     3.000     92
            0  1  1  3     3.000     93
            0  0  2  3     3.000     94
            2  0  0  3     1.700     95
            1  1  0  3     1.700     96
            1  0  1  3     1.700     97
            0  2  0  3     1.700     98
            0  1  1  3     1.700     99
            0  0  2  3     1.700    100
            2  0  0  3     0.980    101
            1  1  0  3     0.980    102
            1  0  1  3     0.980    103
            0  2  0  3     0.980    104
            0  1  1  3     0.980    105
            0  0  2  3     0.980    106
            3  0  0  0    17.100    107
            2  1  0  0    17.100    108
            2  0  1  0    17.100    109
            1  2  0  0    17.100    110
            1  1  1  0    17.100    111
            1  0  2  0    17.100    112
            0  3  0  0    17.100    113
            0  2  1  0    17.100    114
            0  1  2  0    17.100    115
            0  0  3  0    17.100    116
            3  0  0  0     9.350    117
            2  1  0  0     9.350    118
            2  0  1  0     9.350    119
            1  2  0  0     9.350    120
            1  1  1  0     9.350    121
            1  0  2  0     9.350    122
            0  3  0  0     9.350    123
            0  2  1  0     9.350    124
            0  1  2  0     9.350    125
            0  0  3  0     9.350    126
            3  0  0  1     5.850    127
            2  1  0  1     5.850    128
            2  0  1  1     5.850    129
            1  2  0  1     5.850    130
            1  1  1  1     5.850    131
            1  0  2  1     5.850    132
            0  3  0  1     5.850    133
            0  2  1  1     5.850    134
            0  1  2  1     5.850    135
            0  0  3  1     5.850    136
            3  0  0  1     3.150    137
            2  1  0  1     3.150    138
            2  0  1  1     3.150    139
            1  2  0  1     3.150    140
            1  1  1  1     3.150    141
            1  0  2  1     3.150    142
            0  3  0  1     3.150    143
            0  2  1  1     3.150    144
            0  1  2  1     3.150    145
            0  0  3  1     3.150    146
            3  0  0  1     1.550    147
            2  1  0  1     1.550    148
            2  0  1  1     1.550    149
            1  2  0  1     1.550    150
            1  1  1  1     1.550    151
            1  0  2  1     1.550    152
            0  3  0  1     1.550    153
            0  2  1  1     1.550    154
            0  1  2  1     1.550    155
            0  0  3  1     1.550    156
            1  0  0  5     1.550    157
            0  1  0  5     1.550    158
            0  0  1  5     1.550    159

 Cl                                   2    3    4    5
                                  ---------------------------------------------------------------------------
            0  0  0  0    20.300    160  198  236  274
            0  0  0  0    15.250    161  199  237  275
            0  0  0  1     6.250    162  200  238  276
            0  0  0  1     4.450    163  201  239  277
            1  0  0  0     8.850    164  202  240  278
            0  1  0  0     8.850    165  203  241  279
[...]
                                   -2.60%     3 P:y             7.199  0.00     4 Cl
                                   -2.28%     2 S               3.073  0.00    11 H
                                   -2.16%     2 S               3.073  0.00    10 H
                                   -2.12%     3 P:x             7.199  0.00     5 Cl
                                   -1.85%     4 S               6.405  0.00     3 Cl
                                   -1.66%     2 P:x            10.811  0.00     7 O
                                   -1.66%     2 S               3.073  0.00    12 H
                                   -1.61%     4 S               6.405  0.00     5 Cl
                                    1.57%     6 P:z            -0.239  0.00     1 Pa
                                   -1.56%     2 P:y            10.811  0.00     7 O
                                    1.28%     1 P:y            -9.955  1.33     7 O
                                   -1.27%     4 S               6.405  0.00     2 Cl
                                    1.23%     1 P:x            -9.955  1.33     8 O
                                   -1.23%     2 P:z            10.811  0.00     8 O
                                   -1.09%     3 P:x             7.199  0.00     3 Cl
                                   -1.03%     4 S               6.405  0.00     4 Cl
       6.446  0.00   114 A         53.77%     5 D:xy            2.364  0.00     1 Pa
                                   23.65%     5 D:xz            2.364  0.00     1 Pa
                                   17.87%     4 D:xy           -1.800  0.20     1 Pa
                                   11.00%     5 D:x2-y2         2.364  0.00     1 Pa
                                   10.93%     4 D:xz           -1.800  0.20     1 Pa
                                   -8.53%     3 P:y             7.199  0.00     4 Cl
                                    6.12%     5 D:yz            2.364  0.00     1 Pa
                                   -5.16%     3 P:x             7.199  0.00     2 Cl
                                    4.08%     1 S              -6.582  1.00    12 H
                                   -4.02%     2 S               3.073  0.00     9 H
                                   -3.70%     4 S               6.405  0.00     2 Cl
                                   -3.28%     2 S               3.073  0.00    12 H
                                   -3.18%     3 P:x             7.199  0.00     3 Cl
                                   -2.99%     3 P:z             7.199  0.00     4 Cl
                                    2.93%     1 S              -6.582  1.00     9 H
                                    2.62%     4 D:x2-y2        -1.800  0.20     1 Pa
                                   -1.95%     4 S               6.405  0.00     3 Cl
                                   -1.78%     3 P:x             7.199  0.00     5 Cl
                                   -1.69%     2 P:x            10.811  0.00     7 O
                                    1.22%     6 P:y            -0.239  0.00     1 Pa
                                    1.14%     3 P:y             7.199  0.00     2 Cl
       7.099  0.00   115 A         51.56%     7 S              -4.760  2.00     1 Pa
                                   29.29%     5 D:x2-y2         2.364  0.00     1 Pa
                                   11.31%     6 P:x            -0.239  0.00     1 Pa
                                    8.88%     1 S              -6.582  1.00     9 H
                                    7.01%     5 D:xy            2.364  0.00     1 Pa
                                    6.91%     8 S               0.919  0.00     1 Pa
                                    6.78%     1 S              -6.582  1.00    12 H
                                   -5.04%     4 S               6.405  0.00     3 Cl
                                   -4.97%     4 S               6.405  0.00     2 Cl
                                    4.57%     2 P:x            -9.674  1.67     4 Cl
                                   -4.21%     3 P:x             7.199  0.00     4 Cl
                                   -3.40%     1 S              -6.582  1.00    11 H
                                   -3.36%     4 D:x2-y2        -1.800  0.20     1 Pa
                                   -3.12%     1 S              -6.582  1.00    10 H
                                    2.99%     9 S               9.238  0.00     1 Pa
                                   -2.72%     3 S              23.286  0.00     8 O
                                   -2.67%     3 S              23.286  0.00     6 O
                                   -2.35%     4 S               6.405  0.00     5 Cl
                                    2.28%     4 D:z2           -1.800  0.20     1 Pa
                                   -2.14%     2 P:y            10.811  0.00     8 O
                                    2.04%     5 D:xz            2.364  0.00     1 Pa
                                   -2.01%     3 P:z             7.199  0.00     5 Cl
                                   -1.82%     2 P:x            10.811  0.00     6 O
                                    1.46%     2 S             -27.198  2.00     6 O
                                   -1.45%     2 S               3.073  0.00    10 H
                                   -1.42%     2 S               3.073  0.00    11 H
                                    1.36%     2 S             -27.198  2.00     8 O
                                   -1.26%     2 S               3.073  0.00     9 H
                                    1.07%     4 D:xz           -1.800  0.20     1 Pa



 =======================================================================
 Electrostatic potential at the Nuclei due to electrons and other nuclei
 =======================================================================
  
         Atom                  Potential
         ----                  ---------
     1)   Pa                787.51866082
     2)   Cl                 65.06108746
     3)   Cl                 65.06011928
     4)   O                  22.42359215
     5)   Cl                 65.07624113
     6)   Cl                 65.03925041
     7)   O                  22.55363887
     8)   H                   1.04114858
     9)   O                  22.42186559
    10)   H                   1.04857211
    11)   H                   1.05007067
    12)   H                   1.04342013
 Mulliken charges used for AMS results%charges...


    =====================
     CALCULATION RESULTS
    =====================

Energy (hartree)            -3.07668262


--------------
Atomic charges
--------------
  Index   Atom    Charge
      1     Pa    1.6757
      2     Cl   -0.5326
      3     Cl   -0.5325
      4      O   -0.4152
      5     Cl   -0.4698
      6     Cl   -0.4410
      7      O   -0.7299
      8      H    0.2082
      9      O   -0.4124
     10      H    0.2188
     11      H    0.2234
     12      H    0.2072


Dipole moment vector    (Debye):    13.06558309    2.22259633    0.65164236
              magnitude (Debye):    13.26928912


-----------------------
Molecular orbitals info
-----------------------
n orbitals:              393
n spin:                    1

Note: only printing virtual orbitals with
      energy smaller than HOMO + 100. eV

HOMO (eV):              -3.6258
LUMO (eV):               1.7606
HOMO-LUMO gap (eV):      5.3864

   Index   Energy (eV)    Occupation
     281       95.1377         0.000       
     280       94.4020         0.000       
     279       93.2090         0.000       
     278       92.2277         0.000       
     277       90.7814         0.000       
     276       89.9229         0.000       
     275       88.8465         0.000       
     274       87.6460         0.000       
     273       86.7070         0.000       
     272       86.3850         0.000       
     271       85.6168         0.000       
     270       84.8888         0.000       
     269       84.5602         0.000       
     268       82.3081         0.000       
     267       81.3936         0.000       
     266       79.8191         0.000       
     265       79.3524         0.000       
     264       79.1585         0.000       
     263       78.0397         0.000       
     262       77.8003         0.000       
     261       77.1087         0.000       
     260       76.7621         0.000       
     259       76.2733         0.000       
     258       75.2126         0.000       
     257       74.7579         0.000       
     256       74.5032         0.000       
     255       74.0814         0.000       
     254       73.9044         0.000       
     253       73.3941         0.000       
     252       72.8433         0.000       
     251       72.1825         0.000       
     250       72.1146         0.000       
     249       71.1786         0.000       
     248       70.7126         0.000       
     247       69.9076         0.000       
     246       67.3977         0.000       
     245       66.2036         0.000       
     244       64.4075         0.000       
     243       63.6144         0.000       
     242       63.2893         0.000       
     241       61.3718         0.000       
     240       60.1965         0.000       
     239       57.7997         0.000       
     238       57.2145         0.000       
     237       57.0223         0.000       
     236       56.2322         0.000       
     235       55.1902         0.000       
     234       53.9272         0.000       
     233       53.7095         0.000       
     232       51.4585         0.000       
     231       50.8539         0.000       
     230       49.8430         0.000       
     229       47.4171         0.000       
     228       46.7461         0.000       
     227       46.3966         0.000       
     226       46.0564         0.000       
     225       45.4285         0.000       
     224       45.2667         0.000       
     223       44.8131         0.000       
     222       44.3963         0.000       
     221       44.3190         0.000       
     220       43.9389         0.000       
     219       43.7986         0.000       
     218       43.2335         0.000       
     217       42.8594         0.000       
     216       42.7092         0.000       
     215       42.5346         0.000       
     214       42.1280         0.000       
     213       41.9842         0.000       
     212       41.7385         0.000       
     211       41.6237         0.000       
     210       41.5692         0.000       
     209       41.0580         0.000       
     208       40.9919         0.000       
     207       40.9182         0.000       
     206       40.7140         0.000       
     205       40.6341         0.000       
     204       40.5020         0.000       
     203       40.3696         0.000       
     202       40.0707         0.000       
     201       39.9952         0.000       
     200       39.5957         0.000       
     199       39.3303         0.000       
     198       39.0117         0.000       
     197       38.7450         0.000       
     196       38.5925         0.000       
     195       38.3419         0.000       
     194       37.8419         0.000       
     193       37.2613         0.000       
     192       36.0055         0.000       
     191       35.8007         0.000       
     190       34.9523         0.000       
     189       34.7473         0.000       
     188       33.2030         0.000       
     187       32.9637         0.000       
     186       32.1979         0.000       
     185       31.2273         0.000       
     184       30.4786         0.000       
     183       29.3051         0.000       
     182       29.0605         0.000       
     181       28.5563         0.000       
     180       28.2762         0.000       
     179       28.0535         0.000       
     178       27.3790         0.000       
     177       26.6741         0.000       
     176       26.5586         0.000       
     175       26.2396         0.000       
     174       25.8430         0.000       
     173       25.5230         0.000       
     172       25.1764         0.000       
     171       24.3758         0.000       
     170       23.7469         0.000       
     169       23.6577         0.000       
     168       23.0603         0.000       
     167       21.8461         0.000       
     166       21.6375         0.000       
     165       21.5006         0.000       
     164       21.1372         0.000       
     163       20.6498         0.000       
     162       20.1188         0.000       
     161       20.0245         0.000       
     160       19.6988         0.000       
     159       19.5750         0.000       
     158       19.4790         0.000       
     157       19.3798         0.000       
     156       18.9482         0.000       
     155       18.6341         0.000       
     154       18.5955         0.000       
     153       18.2025         0.000       
     152       18.0820         0.000       
     151       17.9378         0.000       
     150       17.5001         0.000       
     149       17.3626         0.000       
     148       17.2949         0.000       
     147       16.9197         0.000       
     146       16.8575         0.000       
     145       16.4237         0.000       
     144       15.9480         0.000       
     143       15.6450         0.000       
     142       15.4711         0.000       
     141       15.2715         0.000       
     140       15.0740         0.000       
     139       15.0010         0.000       
     138       14.6733         0.000       
     137       14.4866         0.000       
     136       14.2472         0.000       
     135       13.9657         0.000       
     134       13.4719         0.000       
     133       13.4158         0.000       
     132       13.1419         0.000       
     131       12.7956         0.000       
     130       12.7798         0.000       
     129       12.4903         0.000       
     128       12.2964         0.000       
     127       12.2748         0.000       
     126       11.7663         0.000       
     125       10.9778         0.000       
     124       10.8610         0.000       
     123       10.6992         0.000       
     122       10.4364         0.000       
     121        9.5719         0.000       
     120        9.3615         0.000       
     119        8.7308         0.000       
     118        8.5166         0.000       
     117        7.3787         0.000       
     116        7.2789         0.000       
     115        7.0988         0.000       
     114        6.4462         0.000       
     113        6.1650         0.000       
     112        6.0566         0.000       
     111        5.7843         0.000       
     110        5.6772         0.000       
     109        5.4825         0.000       
     108        5.4406         0.000       
     107        4.7719         0.000       
     106        4.6077         0.000       
     105        4.2735         0.000       
     104        4.0024         0.000       
     103        3.0452         0.000       
     102        2.8962         0.000       
     101        2.3811         0.000       
     100        2.3581         0.000       
      99        2.1923         0.000       
      98        2.0513         0.000       
      97        1.9944         0.000       
      96        1.9629         0.000       
      95        1.7606         0.000 < LUMO
      94       -3.6258         2.000 < HOMO
      93       -3.8678         2.000       
      92       -4.1480         2.000       
      91       -4.2707         2.000       
      90       -4.4369         2.000       
      89       -4.6055         2.000       
      88       -4.7566         2.000       
      87       -4.9050         2.000       
      86       -5.0177         2.000       
      85       -5.2213         2.000       
      84       -5.2265         2.000       
      83       -5.6784         2.000       
      82       -6.1378         2.000       
      81       -6.2513         2.000       
      80       -6.4836         2.000       
      79       -8.2043         2.000       
      78       -8.3910         2.000       
      77      -10.1057         2.000       
      76      -10.6970         2.000       
      75      -13.6017         2.000       
      74      -14.0808         2.000       
      73      -16.7020         2.000       
      72      -16.8830         2.000       
      71      -17.1328         2.000       
      70      -17.6278         2.000       
      69      -18.7637         2.000       
      68      -21.8885         2.000       
      67      -22.0047         2.000       
      66      -25.9077         2.000       
      65      -27.2289         2.000       
      64      -27.4933         2.000       
      63      -46.4634         2.000       
      62      -96.3130         2.000       
      61      -96.3626         2.000       
      60      -96.3686         2.000       
      59      -96.4754         2.000       
      58      -96.4838         2.000       
      57     -191.6893         2.000       
      56     -191.6909         2.000       
      55     -191.7271         2.000       
      54     -192.0988         2.000       
      53     -192.1102         2.000       
      52     -192.1253         2.000       
      51     -192.1362         2.000       
      50     -192.1368         2.000       
      49     -192.1620         2.000       
      48     -192.7109         2.000       
      47     -192.7156         2.000       
      46     -192.7449         2.000       
      45     -203.4414         2.000       
      44     -203.7343         2.000       
      43     -203.7456         2.000       
      42     -255.2524         2.000       
      41     -255.6651         2.000       
      40     -255.6914         2.000       
      39     -256.2753         2.000       
      38     -302.1609         2.000       
      37     -357.3936         2.000       
      36     -357.4274         2.000       
      35     -357.4376         2.000       
      34     -357.5704         2.000       
      33     -357.5808         2.000       
      32     -357.7210         2.000       
      31     -357.7241         2.000       
      30     -518.7920         2.000       
      29     -521.9308         2.000       
      28     -521.9809         2.000       
      27     -709.2116         2.000       
      26     -709.3653         2.000       
      25     -709.3750         2.000       
      24     -709.5643         2.000       
      23     -709.5824         2.000       
      22    -1037.4895         2.000       
      21    -1037.8245         2.000       
      20    -1037.8421         2.000       
      19    -1355.8983         2.000       
      18    -2771.4691         2.000       
      17    -2771.8766         2.000       
      16    -2771.9029         2.000       
      15    -2772.4777         2.000       
      14    -3481.1232         2.000       
      13    -3481.1820         2.000       
      12    -3481.1861         2.000       
      11    -3481.2750         2.000       
      10    -3481.2814         2.000       
       9    -4343.3325         2.000       
       8    -4343.5200         2.000       
       7    -4343.5291         2.000       
       6    -5314.5250         2.000       
       5   -17557.5418         2.000       
       4   -17557.5687         2.000       
       3   -17557.5696         2.000       
       2   -21033.3716         2.000       
       1  -112695.5395         2.000       

AMS application finished. Exiting.
NORMAL TERMINATION
     Total cpu time:     465.64
  Total system time:      23.78
 Total elapsed time:     491.40
