

 Parallel Execution: Process Information
 ==============================================================================
 Rank   Node Name                              NodeID   MyNodeRank  NodeMaster
    0   u-0-4.local                               0          0          0
    1   u-0-4.local                               0          1         -1
    2   u-0-4.local                               0          2         -1
    3   u-0-4.local                               0          3         -1
    4   u-0-4.local                               1          0          1
    5   u-0-4.local                               1          1         -1
    6   u-0-4.local                               1          2         -1
    7   u-0-4.local                               1          3         -1
    8   u-0-4.local                               2          0          2
    9   u-0-4.local                               2          1         -1
   10   u-0-4.local                               2          2         -1
   11   u-0-4.local                               2          3         -1
   12   u-0-4.local                               3          0          3
   13   u-0-4.local                               3          1         -1
   14   u-0-4.local                               3          2         -1
   15   u-0-4.local                               3          3         -1
 ==============================================================================


May use up to 31228MB of RAM as shared memory on node 0
May use up to 31250MB of RAM as shared memory on node 2
May use up to 31250MB of RAM as shared memory on node 3
May use up to 31250MB of RAM as shared memory on node 1

 *******************************************************************************
 *                                                                             *
 *  --------------------------------                                           *
 *   Amsterdam Modeling Suite (AMS)              2024.103                      *
 *  --------------------------------                                           *
 *                                               r241004 2024-10-04 d82be5f7   *
 *                                                                             *
 *                                                                             *
 *                              =================                              *
 *                              |               |                              *
 *                              |     A M S     |                              *
 *                              |               |                              *
 *                              =================                              *
 *                                                                             *
 *                                                                             *
 *   Online information and documentation:  https://www.scm.com/support/       *
 *   E-mail:  support@scm.com   info@scm.com                                   *
 *                                                                             *
 *   Scientific publications using AMS results must be properly referenced     *
 *   See the User Manuals (or the web site) for recommended citations          *
 *   The terms and conditions of the End User License Agreement apply to       *
 *   the use of AMS, https://www.scm.com/license-terms/                        *
 *                                                                             *
 **********************  x86_64_linux_intel / intelmpi  ************************
 
 Licensed to: Dr. Val?rie Vallet / Laboratoire PhLAM UMR 8523 / Villeneuve d'Ascq Cedex / FRANCE 2024-12-20 16:14:47
 SCM User ID: u10325
  
 AMS 2024.103  RunTime: Mar19-2025 09:51:03  ShM Nodes: 4  Procs: 16

 AMS jobname: pao_3cl_2h2o_cl_trans.SR.pbe0.tz2p.opt-freq-solvation
 AMS jobid  : 2113396165

 Start   directory: /state/partition2/shaaban/1046919.phlam-s-sakura/
 Results directory: /home/shaaban/ams/PhD/geometries-exafs/pao-chloride/pao_cl4_2h2o/PBE0/pao_3cl_2h2o_cl_trans.SR.pbe0.tz2p.opt-freq-solvation.results/
 Scratch directory: /state/partition2/shaaban/1046919.phlam-s-sakura/amstmp_pao_3cl_2h2o_cl_trans.SR.pbe0.tz2p.opt-freq-solvation_kid0.2113396165/


 Communication costs MPI_COMM_WORLD:     -1.560 usec per message,   0.0445 usec per 8-byte item
 Communication costs for intra-node:      0.578 usec per message,   0.0084 usec per 8-byte item

 RNG seed: -775591786 -1183656954 -855974992 298243076 2008318233 -1726668775 -92946435 -1389763350



                     *************************************************************************
                     *  ADF 2024.103  RunTime: Mar19-2025 09:51:04  ShM Nodes: 4  Procs: 16  *
                     *************************************************************************
  

       ***************************
       *  GEOMETRY OPTIMIZATION  *
       ***************************

Optimization Method                    Quasi Newton
Optimization Coordinates               Delocalized Coordinates
Optimize lattice                       F
 
 ------------------------------------------------------
 Convergence criteria (Hartree,Angstrom)
 ------------------------------------------------------
 Maximum gradient               0.000100000000
 Maximum rms gradient           0.000066666667
 Maximum step allowed           0.001000000000
 Maximum rms step allowed       0.000666666667
 Maximum energy change allowe   0.000012000000
 Maximum stress energy allowe   0.000500000000
 
Initial model Hessian                  Automatic Hessian
 
------------------------------------
Quasi-Newton Optimizer Parameters
------------------------------------
Hessian Update Method                  BFGS
Maximum number of steps                  250
First GDIIS cycle                          0
Maximum GDIIS vectors                      0
Trust radius (bohr)                        0.200000
Trust radius varies                        T
Constraints converged at all steps         T
Use projector                              T
 
 Rigid motions settings for: old optimizer
 Atomic rotations (x,y,z):     T T T
 Atomic translations (x,y,z):  T T T
 Tolerance:                   1.000000000000000E-006
 
--------
Geometry
--------
Formula: H4Cl4O3Pa
Atoms
  Index Symbol   x (angstrom)   y (angstrom)   z (angstrom)
      1     Pa    -0.42112389    -0.72636342     0.52457044       adf.R=2.200
      2     Cl    -0.44757604     1.73972797    -0.57818249       adf.R=1.725
      3     Cl    -0.63430388    -2.93470043     2.09037744       adf.R=1.725
      4      O     2.00706712    -0.29563075     1.31606132       adf.R=1.517
      5     Cl    -2.65695041    -1.44620966    -0.68492384       adf.R=1.725
      6     Cl     0.44980402    -0.72130452    -1.94643320       adf.R=1.725
      7      O    -1.22115800     0.10351591     1.94058006       adf.R=1.517
      8      H     1.64179326    -2.74802195    -0.85823082       adf.R=1.350
      9      O     0.75890090    -2.81449666    -0.47642257       adf.R=1.517
     10      H     0.79523575    -3.49726432     0.20657967       adf.R=1.350
     11      H     2.30707527     0.55258505     0.98121051       adf.R=1.350
     12      H     1.87456597    -0.24023790     0.36686425       adf.R=1.350
 
Total System Charge            -1.00000
Bonding info available!
 
 
----------------
ADF Engine Input
----------------
 
 Basis
 Type TZ2P
 Core None
 End
 XC
 Hybrid PBE0
 End
 Solvation
 Surf Delley
 Solv name=Water cav0=0.0 cav1=0.0067639
 Charged method=CONJ
 C-Mat POT
 SCF VAR ALL
 CSMRSP
 End
 NumericalQuality Good
 MBPT
 SigmaFunctionalParametrization W1
 End
 

 Title: *** (NO TITLE) ***

 Using automatic Hessian for delocalized coordinates.
 *** GO1_GOStep1 ***

 SOLVATION
-------------------------------------------

  The Delley construction of COSMO surface surface is calculated

       Division Level for Surface Triangles (NDIV)                  3
       Final Division Level for Triangles (NFDIV)                   1
       Radius of the Solvent (RSOL)                           1.93000 angstr
  Dielectric Constant (EPSL)                                 78.39000

       COSMO equation is solved iteratively-               conjugate-gradient

       Maximun of Iterations for Charges (NCIX)                  1000
       Criterion for Charge convergence (CCNV)                1.0E-08

  COSMO charges included variationally in SCF

       COSMO included at every SCF cycle

  Geometry-dependent empirical factor                         0.00000

  C-Matrix calculated in cspmtx

  In cspmtx, C-Matrix calculated using fitted potential

-------------------------------------------



 -------------------------------------------
  COSMO surface
  Area             =          614.289
  Volume           =         1135.780
  Number of Points =         1461
 -------------------------------------------
 
 RIHartreeFock Dependency: number of modified vectors:           8
 cosmo_calcen: 0.5 (esolb+esolc) (Hartrees) =   -0.117698

 Solvation energy (screening term,uncorrected) =    -73.856922 kcal/mol

 Solvation energy (dispersion and cavitation terms) =      1.148674 kcal/mol
 Solvation Energy Contributions (Hartrees)
          esola   esolb+esolc
     0.11769848   -0.23539697
 esol last cycle   -0.11769848
  
 Hartree-Fock exchange energy:   -603.430348651494     
 cosmo_calcen: 0.5 (esolb+esolc) (Hartrees) =   -0.117698

 Solvation energy (screening term,uncorrected) =    -73.856901 kcal/mol

 Solvation energy (dispersion and cavitation terms) =      1.148674 kcal/mol
 Solvation Energy Contributions (Hartrees)
          esola   esolb+esolc
     0.11769845   -0.23539690
 esol last cycle   -0.11769845

 Energy gradients wrt nuclear displacements
 ==========================================

     Atom      Cartesian (a.u./angstrom)
                 X         Y         Z
 ----------------------------------------
     1 Pa    0.069743  0.001738 -0.004368
     2 Cl    0.004083 -0.018255 -0.023553
     3 Cl   -0.002590  0.000286 -0.000122
     4 O     0.022552 -0.018245  0.038076
     5 Cl   -0.001824 -0.001542 -0.008009
     6 Cl   -0.023120 -0.004754  0.033966
     7 O    -0.006677  0.004720  0.006063
     8 H     0.003082  0.000070  0.005482
     9 O    -0.005884  0.022047 -0.030179
    10 H    -0.002690  0.004911 -0.002781
    11 H    -0.055676 -0.093723 -0.097886
    12 H    -0.000999  0.102745  0.083309
 ----------------------------------------
 Mulliken charges used for AMS results%charges...
 
----------------------------------------------------------------------
Geometry Convergence after Step   1       (Hartree/Angstrom,Angstrom)
----------------------------------------------------------------------
current energy                               -3.08994608 Hartree
energy change                      -3.08994608     0.00001200    F
constrained gradient max            0.10271622     0.00010000    F
constrained gradient rms            0.03743378     0.00006667    F
gradient max                        0.10271622
gradient rms                        0.03743378
cart. step max                      0.05705596     0.00100000    F
cart. step rms                      0.02354609     0.00066667    F
 
 
--------
Geometry
--------
Formula: H4Cl4O3Pa
Atoms
  Index Symbol   x (angstrom)   y (angstrom)   z (angstrom)
      1     Pa    -0.43088597    -0.72684014     0.50450941       adf.R=2.200
      2     Cl    -0.47856117     1.76998548    -0.53253690       adf.R=1.725
      3     Cl    -0.61767111    -2.94245909     2.06348833       adf.R=1.725
      4      O     2.00338725    -0.28707487     1.29397207       adf.R=1.517
      5     Cl    -2.67106704    -1.44402925    -0.69411049       adf.R=1.725
      6     Cl     0.46456353    -0.69713228    -1.97223889       adf.R=1.725
      7      O    -1.22607124     0.09219141     1.92578649       adf.R=1.517
      8      H     1.63820778    -2.78254881    -0.83128171       adf.R=1.350
      9      O     0.75351336    -2.83922498    -0.45262894       adf.R=1.517
     10      H     0.78525475    -3.51329308     0.24171566       adf.R=1.350
     11      H     2.36413123     0.58155202     1.01226884       adf.R=1.350
     12      H     1.86852871    -0.23952710     0.32310691       adf.R=1.350
 
Total System Charge            -1.00000
Bonding info available!
 
 *** GO1_GOStep2 ***

 SOLVATION
-------------------------------------------

  The Delley construction of COSMO surface surface is calculated

       Division Level for Surface Triangles (NDIV)                  3
       Final Division Level for Triangles (NFDIV)                   1
       Radius of the Solvent (RSOL)                           1.93000 angstr
  Dielectric Constant (EPSL)                                 78.39000

       COSMO equation is solved iteratively-               conjugate-gradient

       Maximun of Iterations for Charges (NCIX)                  1000
       Criterion for Charge convergence (CCNV)                1.0E-08

  COSMO charges included variationally in SCF

       COSMO included at every SCF cycle

  Geometry-dependent empirical factor                         0.00000

  C-Matrix calculated in cspmtx

  In cspmtx, C-Matrix calculated using fitted potential

-------------------------------------------



 -------------------------------------------
  COSMO surface
  Area             =          614.986
  Volume           =         1137.467
  Number of Points =         1457
 -------------------------------------------
 
 RIHartreeFock Dependency: number of modified vectors:           8
 cosmo_calcen: 0.5 (esolb+esolc) (Hartrees) =   -0.117186

 Solvation energy (screening term,uncorrected) =    -73.535219 kcal/mol

 Solvation energy (dispersion and cavitation terms) =      1.149977 kcal/mol
 Solvation Energy Contributions (Hartrees)
          esola   esolb+esolc
     0.11718582   -0.23437164
 esol last cycle   -0.11718582
  
 Hartree-Fock exchange energy:   -603.403167380707     
 cosmo_calcen: 0.5 (esolb+esolc) (Hartrees) =   -0.117186

 Solvation energy (screening term,uncorrected) =    -73.535220 kcal/mol

 Solvation energy (dispersion and cavitation terms) =      1.149977 kcal/mol
 Solvation Energy Contributions (Hartrees)
          esola   esolb+esolc
     0.11718582   -0.23437164
 esol last cycle   -0.11718582

 Energy gradients wrt nuclear displacements
 ==========================================

     Atom      Cartesian (a.u./angstrom)
                 X         Y         Z
 ----------------------------------------
     1 Pa    0.063859  0.000664 -0.002961
     2 Cl    0.002611 -0.013234 -0.018962
     3 Cl   -0.000055  0.000156 -0.003822
     4 O     0.011411 -0.052714  0.083197
     5 Cl   -0.002904 -0.001649 -0.007204
     6 Cl   -0.021064 -0.001250  0.023130
     7 O    -0.005103  0.004965  0.002758
     8 H     0.002436 -0.000003  0.006318
     9 O    -0.007260  0.016551 -0.022893
    10 H    -0.001352  0.001112 -0.000594
    11 H    -0.028620 -0.032895 -0.092169
    12 H    -0.013959  0.078297  0.033203
 ----------------------------------------
 Mulliken charges used for AMS results%charges...

 dE(predicted):    -0.15401E-01, dE(actual):    -0.15614E-01, Trust radius:    0.400000, all in a.u.
 
----------------------------------------------------------------------
Geometry Convergence after Step   2       (Hartree/Angstrom,Angstrom)
----------------------------------------------------------------------
current energy                               -3.10555969 Hartree
energy change                      -0.01561361     0.00001200    F
constrained gradient max            0.09201575     0.00010000    F
constrained gradient rms            0.03086681     0.00006667    F
gradient max                        0.09201575
gradient rms                        0.03086681
cart. step max                      0.09631628     0.00100000    F
cart. step rms                      0.03913134     0.00066667    F
 
 
--------
Geometry
--------
Formula: H4Cl4O3Pa
Atoms
  Index Symbol   x (angstrom)   y (angstrom)   z (angstrom)
      1     Pa    -0.45815064    -0.72692864     0.46895424       adf.R=2.200
      2     Cl    -0.54849163     1.82145363    -0.44432194       adf.R=1.725
      3     Cl    -0.60977857    -2.92938954     2.05494140       adf.R=1.725
      4      O     1.99050225    -0.26527186     1.23038812       adf.R=1.517
      5     Cl    -2.70470915    -1.45070072    -0.69984270       adf.R=1.725
      6     Cl     0.54107546    -0.68345815    -1.99598508       adf.R=1.725
      7      O    -1.23906747     0.07253119     1.90268864       adf.R=1.517
      8      H     1.63476946    -2.82115481    -0.80647221       adf.R=1.350
      9      O     0.74930883    -2.86615852    -0.42714510       adf.R=1.517
     10      H     0.77785022    -3.52480637     0.28267606       adf.R=1.350
     11      H     2.46044750     0.58773333     1.06952653       adf.R=1.350
     12      H     1.85957383    -0.24225024     0.24664282       adf.R=1.350
 
Total System Charge            -1.00000
Bonding info available!
 
 *** GO1_GOStep3 ***

 SOLVATION
-------------------------------------------

  The Delley construction of COSMO surface surface is calculated

       Division Level for Surface Triangles (NDIV)                  3
       Final Division Level for Triangles (NFDIV)                   1
       Radius of the Solvent (RSOL)                           1.93000 angstr
  Dielectric Constant (EPSL)                                 78.39000

       COSMO equation is solved iteratively-               conjugate-gradient

       Maximun of Iterations for Charges (NCIX)                  1000
       Criterion for Charge convergence (CCNV)                1.0E-08

  COSMO charges included variationally in SCF

       COSMO included at every SCF cycle

  Geometry-dependent empirical factor                         0.00000

  C-Matrix calculated in cspmtx

  In cspmtx, C-Matrix calculated using fitted potential

-------------------------------------------



 -------------------------------------------
  COSMO surface
  Area             =          620.935
  Volume           =         1143.683
  Number of Points =         1466
 -------------------------------------------
 
 RIHartreeFock Dependency: number of modified vectors:           8
 cosmo_calcen: 0.5 (esolb+esolc) (Hartrees) =   -0.115525

 Solvation energy (screening term,uncorrected) =    -72.493216 kcal/mol

 Solvation energy (dispersion and cavitation terms) =      1.161100 kcal/mol
 Solvation Energy Contributions (Hartrees)
          esola   esolb+esolc
     0.11552528   -0.23105056
 esol last cycle   -0.11552528
  
 Hartree-Fock exchange energy:   -603.387743092070     
 cosmo_calcen: 0.5 (esolb+esolc) (Hartrees) =   -0.115525

 Solvation energy (screening term,uncorrected) =    -72.493206 kcal/mol

 Solvation energy (dispersion and cavitation terms) =      1.161100 kcal/mol
 Solvation Energy Contributions (Hartrees)
          esola   esolb+esolc
     0.11552527   -0.23105053
 esol last cycle   -0.11552527

 Energy gradients wrt nuclear displacements
 ==========================================

     Atom      Cartesian (a.u./angstrom)
                 X         Y         Z
 ----------------------------------------
     1 Pa    0.051441 -0.001784 -0.003749
     2 Cl   -0.000183 -0.003836 -0.008651
     3 Cl    0.001641  0.000529 -0.005728
     4 O     0.002721 -0.053733  0.091092
     5 Cl   -0.005053 -0.002021 -0.004703
     6 Cl   -0.014464 -0.005381  0.009683
     7 O    -0.002712  0.005107 -0.001822
     8 H     0.003197 -0.000128  0.005958
     9 O    -0.008258  0.011488 -0.016084
    10 H    -0.000415 -0.000443  0.000230
    11 H    -0.001882  0.005221 -0.064718
    12 H    -0.026033  0.044980 -0.001507
 ----------------------------------------
 Mulliken charges used for AMS results%charges...

 dE(predicted):    -0.17925E-01, dE(actual):    -0.19360E-01, Trust radius:    0.800000, all in a.u.
 
----------------------------------------------------------------------
Geometry Convergence after Step   3       (Hartree/Angstrom,Angstrom)
----------------------------------------------------------------------
current energy                               -3.12491986 Hartree
energy change                      -0.01936016     0.00001200    F
constrained gradient max            0.09120207     0.00010000    F
constrained gradient rms            0.02462427     0.00006667    F
gradient max                        0.09120207
gradient rms                        0.02462427
cart. step max                      0.17177229     0.00100000    F
cart. step rms                      0.06096801     0.00066667    F
 
 
--------
Geometry
--------
Formula: H4Cl4O3Pa
Atoms
  Index Symbol   x (angstrom)   y (angstrom)   z (angstrom)
      1     Pa    -0.50675859    -0.72884320     0.42189040       adf.R=2.200
      2     Cl    -0.65213662     1.86570276    -0.35470575       adf.R=1.725
      3     Cl    -0.62134802    -2.89327380     2.07431669       adf.R=1.725
      4      O     1.96581277    -0.24083871     1.09707146       adf.R=1.517
      5     Cl    -2.75207955    -1.46089142    -0.71403720       adf.R=1.725
      6     Cl     0.71284775    -0.56934367    -1.97623901       adf.R=1.725
      7      O    -1.23582675     0.02533836     1.89990719       adf.R=1.517
      8      H     1.61480693    -2.87621536    -0.79352560       adf.R=1.350
      9      O     0.74650678    -2.90266585    -0.37578167       adf.R=1.517
     10      H     0.79401916    -3.52894396     0.36114409       adf.R=1.350
     11      H     2.53104203     0.54875559     1.12217005       adf.R=1.350
     12      H     1.85644419    -0.26718143     0.11984012       adf.R=1.350
 
Total System Charge            -1.00000
Bonding info available!
 
 *** GO1_GOStep4 ***

 SOLVATION
-------------------------------------------

  The Delley construction of COSMO surface surface is calculated

       Division Level for Surface Triangles (NDIV)                  3
       Final Division Level for Triangles (NFDIV)                   1
       Radius of the Solvent (RSOL)                           1.93000 angstr
  Dielectric Constant (EPSL)                                 78.39000

       COSMO equation is solved iteratively-               conjugate-gradient

       Maximun of Iterations for Charges (NCIX)                  1000
       Criterion for Charge convergence (CCNV)                1.0E-08

  COSMO charges included variationally in SCF

       COSMO included at every SCF cycle

  Geometry-dependent empirical factor                         0.00000

  C-Matrix calculated in cspmtx

  In cspmtx, C-Matrix calculated using fitted potential

-------------------------------------------



 -------------------------------------------
  COSMO surface
  Area             =          622.852
  Volume           =         1141.760
  Number of Points =         1464
 -------------------------------------------
 
 RIHartreeFock Dependency: number of modified vectors:           8
 cosmo_calcen: 0.5 (esolb+esolc) (Hartrees) =   -0.111371

 Solvation energy (screening term,uncorrected) =    -69.886500 kcal/mol

 Solvation energy (dispersion and cavitation terms) =      1.164685 kcal/mol
 Solvation Energy Contributions (Hartrees)
          esola   esolb+esolc
     0.11137122   -0.22274243
 esol last cycle   -0.11137122
  
 Hartree-Fock exchange energy:   -603.395410539742     
 cosmo_calcen: 0.5 (esolb+esolc) (Hartrees) =   -0.111371

 Solvation energy (screening term,uncorrected) =    -69.886499 kcal/mol

 Solvation energy (dispersion and cavitation terms) =      1.164685 kcal/mol
 Solvation Energy Contributions (Hartrees)
          esola   esolb+esolc
     0.11137121   -0.22274243
 esol last cycle   -0.11137121

 Energy gradients wrt nuclear displacements
 ==========================================

     Atom      Cartesian (a.u./angstrom)
                 X         Y         Z
 ----------------------------------------
     1 Pa    0.029874 -0.005586 -0.009776
     2 Cl    0.000691  0.001001 -0.001839
     3 Cl    0.002156  0.003348 -0.005374
     4 O     0.013696 -0.011877  0.046736
     5 Cl   -0.005982 -0.001901 -0.001139
     6 Cl   -0.008039  0.002172 -0.001844
     7 O     0.000431  0.001258 -0.004439
     8 H     0.002106  0.000105  0.004579
     9 O    -0.005224  0.000470 -0.004787
    10 H     0.000313 -0.001188  0.001049
    11 H     0.006312  0.001696 -0.024299
    12 H    -0.036334  0.010502  0.001134
 ----------------------------------------
 Mulliken charges used for AMS results%charges...

 dE(predicted):    -0.13391E-01, dE(actual):    -0.17824E-01, Trust radius:    1.000000, all in a.u.
 
----------------------------------------------------------------------
Geometry Convergence after Step   4       (Hartree/Angstrom,Angstrom)
----------------------------------------------------------------------
current energy                               -3.14274357 Hartree
energy change                      -0.01782372     0.00001200    F
constrained gradient max            0.04679807     0.00010000    F
constrained gradient rms            0.01275829     0.00006667    F
gradient max                        0.04679807
gradient rms                        0.01275829
cart. step max                      0.17670987     0.00100000    F
cart. step rms                      0.04830262     0.00066667    F
 
 
--------
Geometry
--------
Formula: H4Cl4O3Pa
Atoms
  Index Symbol   x (angstrom)   y (angstrom)   z (angstrom)
      1     Pa    -0.54110090    -0.72977232     0.41099932       adf.R=2.200
      2     Cl    -0.73124481     1.87936803    -0.30719793       adf.R=1.725
      3     Cl    -0.66056514    -2.85835077     2.12320410       adf.R=1.725
      4      O     1.94125804    -0.23661133     0.99595863       adf.R=1.517
      5     Cl    -2.77473077    -1.45196366    -0.72727476       adf.R=1.725
      6     Cl     0.88955762    -0.55070678    -1.88902272       adf.R=1.725
      7      O    -1.21167768     0.00168964     1.92690893       adf.R=1.517
      8      H     1.58667888    -2.88698204    -0.83404100       adf.R=1.350
      9      O     0.74701458    -2.90449114    -0.36108727       adf.R=1.517
     10      H     0.82881223    -3.51470100     0.38440101       adf.R=1.350
     11      H     2.50719618     0.52988171     1.13258312       adf.R=1.350
     12      H     1.87213186    -0.30576102     0.02661937       adf.R=1.350
 
Total System Charge            -1.00000
Bonding info available!
 
 *** GO1_GOStep5 ***

 SOLVATION
-------------------------------------------

  The Delley construction of COSMO surface surface is calculated

       Division Level for Surface Triangles (NDIV)                  3
       Final Division Level for Triangles (NFDIV)                   1
       Radius of the Solvent (RSOL)                           1.93000 angstr
  Dielectric Constant (EPSL)                                 78.39000

       COSMO equation is solved iteratively-               conjugate-gradient

       Maximun of Iterations for Charges (NCIX)                  1000
       Criterion for Charge convergence (CCNV)                1.0E-08

  COSMO charges included variationally in SCF

       COSMO included at every SCF cycle

  Geometry-dependent empirical factor                         0.00000

  C-Matrix calculated in cspmtx

  In cspmtx, C-Matrix calculated using fitted potential

-------------------------------------------



 -------------------------------------------
  COSMO surface
  Area             =          625.566
  Volume           =         1141.815
  Number of Points =         1473
 -------------------------------------------
 
 RIHartreeFock Dependency: number of modified vectors:           8
 cosmo_calcen: 0.5 (esolb+esolc) (Hartrees) =   -0.107893

 Solvation energy (screening term,uncorrected) =    -67.703979 kcal/mol

 Solvation energy (dispersion and cavitation terms) =      1.169760 kcal/mol
 Solvation Energy Contributions (Hartrees)
          esola   esolb+esolc
     0.10789315   -0.21578629
 esol last cycle   -0.10789315
  
 Hartree-Fock exchange energy:   -603.407591343048     
 cosmo_calcen: 0.5 (esolb+esolc) (Hartrees) =   -0.107893

 Solvation energy (screening term,uncorrected) =    -67.703986 kcal/mol

 Solvation energy (dispersion and cavitation terms) =      1.169760 kcal/mol
 Solvation Energy Contributions (Hartrees)
          esola   esolb+esolc
     0.10789316   -0.21578632
 esol last cycle   -0.10789316

 Energy gradients wrt nuclear displacements
 ==========================================

     Atom      Cartesian (a.u./angstrom)
                 X         Y         Z
 ----------------------------------------
     1 Pa    0.012992 -0.007066 -0.017772
     2 Cl    0.000412  0.004624  0.003193
     3 Cl   -0.001149  0.006444  0.001153
     4 O     0.023067  0.010313  0.007333
     5 Cl   -0.003898 -0.001051  0.000900
     6 Cl   -0.001470 -0.002107  0.004910
     7 O     0.001185 -0.002677 -0.002443
     8 H     0.002183 -0.000237  0.001806
     9 O     0.001316 -0.000046 -0.007379
    10 H    -0.000401  0.000840  0.001103
    11 H     0.003016 -0.006043 -0.007896
    12 H    -0.037253 -0.002994  0.015091
 ----------------------------------------
 Mulliken charges used for AMS results%charges...
 Rebuilding optimization coordinates

 dE(predicted):    -0.49322E-02, dE(actual):    -0.62776E-02, Trust radius:    1.000000, all in a.u.
 
----------------------------------------------------------------------
Geometry Convergence after Step   5       (Hartree/Angstrom,Angstrom)
----------------------------------------------------------------------
current energy                               -3.14902120 Hartree
energy change                      -0.00627762     0.00001200    F
constrained gradient max            0.03724380     0.00010000    F
constrained gradient rms            0.00937462     0.00006667    F
gradient max                        0.03724380
gradient rms                        0.00937462
cart. step max                      0.07917208     0.00100000    F
cart. step rms                      0.03227851     0.00066667    F
 
 
--------
Geometry
--------
Formula: H4Cl4O3Pa
Atoms
  Index Symbol   x (angstrom)   y (angstrom)   z (angstrom)
      1     Pa    -0.54255374    -0.72461047     0.41502823       adf.R=2.200
      2     Cl    -0.77114637     1.87713880    -0.30930426       adf.R=1.725
      3     Cl    -0.65675957    -2.87310146     2.11542389       adf.R=1.725
      4      O     1.93041535    -0.23118251     0.93282277       adf.R=1.517
      5     Cl    -2.76774650    -1.42378080    -0.73436733       adf.R=1.725
      6     Cl     0.96872970    -0.51602251    -1.84705076       adf.R=1.725
      7      O    -1.17754429    -0.00591818     1.95432401       adf.R=1.517
      8      H     1.54267591    -2.92206503    -0.85632869       adf.R=1.350
      9      O     0.73399397    -2.91849758    -0.33317513       adf.R=1.517
     10      H     0.84059762    -3.51980266     0.41481467       adf.R=1.350
     11      H     2.43190492     0.54900565     1.16490537       adf.R=1.350
     12      H     1.92076308    -0.31956393    -0.03504198       adf.R=1.350
 
Total System Charge            -1.00000
Bonding info available!
 
 *** GO1_GOStep6 ***

 SOLVATION
-------------------------------------------

  The Delley construction of COSMO surface surface is calculated

       Division Level for Surface Triangles (NDIV)                  3
       Final Division Level for Triangles (NFDIV)                   1
       Radius of the Solvent (RSOL)                           1.93000 angstr
  Dielectric Constant (EPSL)                                 78.39000

       COSMO equation is solved iteratively-               conjugate-gradient

       Maximun of Iterations for Charges (NCIX)                  1000
       Criterion for Charge convergence (CCNV)                1.0E-08

  COSMO charges included variationally in SCF

       COSMO included at every SCF cycle

  Geometry-dependent empirical factor                         0.00000

  C-Matrix calculated in cspmtx

  In cspmtx, C-Matrix calculated using fitted potential

-------------------------------------------



 -------------------------------------------
  COSMO surface
  Area             =          623.444
  Volume           =         1138.159
  Number of Points =         1470
 -------------------------------------------
 
 RIHartreeFock Dependency: number of modified vectors:           8
 cosmo_calcen: 0.5 (esolb+esolc) (Hartrees) =   -0.106536

 Solvation energy (screening term,uncorrected) =    -66.852144 kcal/mol

 Solvation energy (dispersion and cavitation terms) =      1.165792 kcal/mol
 Solvation Energy Contributions (Hartrees)
          esola   esolb+esolc
     0.10653566   -0.21307132
 esol last cycle   -0.10653566
  
 Hartree-Fock exchange energy:   -603.417152025793     
 cosmo_calcen: 0.5 (esolb+esolc) (Hartrees) =   -0.106536

 Solvation energy (screening term,uncorrected) =    -66.852151 kcal/mol

 Solvation energy (dispersion and cavitation terms) =      1.165792 kcal/mol
 Solvation Energy Contributions (Hartrees)
          esola   esolb+esolc
     0.10653567   -0.21307135
 esol last cycle   -0.10653567

 Energy gradients wrt nuclear displacements
 ==========================================

     Atom      Cartesian (a.u./angstrom)
                 X         Y         Z
 ----------------------------------------
     1 Pa    0.002604 -0.005888 -0.019509
     2 Cl    0.001079  0.005077  0.003072
     3 Cl    0.001023  0.005274 -0.000910
     4 O     0.030371  0.025395 -0.011857
     5 Cl   -0.000955  0.000113  0.002120
     6 Cl    0.002106  0.001698  0.012076
     7 O     0.000478 -0.003601 -0.001272
     8 H     0.000573 -0.000187  0.001212
     9 O     0.002135 -0.004210 -0.000990
    10 H    -0.000318  0.001499  0.000515
    11 H    -0.003205 -0.013690 -0.001053
    12 H    -0.035892 -0.011479  0.016596
 ----------------------------------------
 Mulliken charges used for AMS results%charges...

 dE(predicted):    -0.22946E-02, dE(actual):    -0.32185E-02, Trust radius:    1.000000, all in a.u.
 
----------------------------------------------------------------------
Geometry Convergence after Step   6       (Hartree/Angstrom,Angstrom)
----------------------------------------------------------------------
current energy                               -3.15223973 Hartree
energy change                      -0.00321853     0.00001200    F
constrained gradient max            0.03589056     0.00010000    F
constrained gradient rms            0.01091795     0.00006667    F
gradient max                        0.03589056
gradient rms                        0.01091795
cart. step max                      0.07338917     0.00100000    F
cart. step rms                      0.02473001     0.00066667    F
 
 
--------
Geometry
--------
Formula: H4Cl4O3Pa
Atoms
  Index Symbol   x (angstrom)   y (angstrom)   z (angstrom)
      1     Pa    -0.52454195    -0.72224961     0.42567675       adf.R=2.200
      2     Cl    -0.75370243     1.86516689    -0.33984810       adf.R=1.725
      3     Cl    -0.67155083    -2.87716925     2.11884072       adf.R=1.725
      4      O     1.93378967    -0.24034416     0.96227087       adf.R=1.517
      5     Cl    -2.75547271    -1.41445760    -0.71912216       adf.R=1.725
      6     Cl     0.89534053    -0.56010805    -1.89994042       adf.R=1.725
      7      O    -1.16388997     0.01519440     1.95610185       adf.R=1.517
      8      H     1.54160235    -2.91215788    -0.88127804       adf.R=1.350
      9      O     0.74233546    -2.91083515    -0.34343134       adf.R=1.517
     10      H     0.85909571    -3.51919108     0.39744643       adf.R=1.350
     11      H     2.39429985     0.56336471     1.21720741       adf.R=1.350
     12      H     1.95602440    -0.31561391    -0.01187319       adf.R=1.350
 
Total System Charge            -1.00000
Bonding info available!
 
 *** GO1_GOStep7 ***

 SOLVATION
-------------------------------------------

  The Delley construction of COSMO surface surface is calculated

       Division Level for Surface Triangles (NDIV)                  3
       Final Division Level for Triangles (NFDIV)                   1
       Radius of the Solvent (RSOL)                           1.93000 angstr
  Dielectric Constant (EPSL)                                 78.39000

       COSMO equation is solved iteratively-               conjugate-gradient

       Maximun of Iterations for Charges (NCIX)                  1000
       Criterion for Charge convergence (CCNV)                1.0E-08

  COSMO charges included variationally in SCF

       COSMO included at every SCF cycle

  Geometry-dependent empirical factor                         0.00000

  C-Matrix calculated in cspmtx

  In cspmtx, C-Matrix calculated using fitted potential

-------------------------------------------



 -------------------------------------------
  COSMO surface
  Area             =          624.607
  Volume           =         1143.754
  Number of Points =         1468
 -------------------------------------------
 
 RIHartreeFock Dependency: number of modified vectors:           8
 cosmo_calcen: 0.5 (esolb+esolc) (Hartrees) =   -0.109147

 Solvation energy (screening term,uncorrected) =    -68.490745 kcal/mol

 Solvation energy (dispersion and cavitation terms) =      1.167966 kcal/mol
 Solvation Energy Contributions (Hartrees)
          esola   esolb+esolc
     0.10914694   -0.21829388
 esol last cycle   -0.10914694
  
 Hartree-Fock exchange energy:   -603.406128431728     
 cosmo_calcen: 0.5 (esolb+esolc) (Hartrees) =   -0.109147

 Solvation energy (screening term,uncorrected) =    -68.490743 kcal/mol

 Solvation energy (dispersion and cavitation terms) =      1.167966 kcal/mol
 Solvation Energy Contributions (Hartrees)
          esola   esolb+esolc
     0.10914694   -0.21829387
 esol last cycle   -0.10914694

 Energy gradients wrt nuclear displacements
 ==========================================

     Atom      Cartesian (a.u./angstrom)
                 X         Y         Z
 ----------------------------------------
     1 Pa    0.006269 -0.004638 -0.016274
     2 Cl    0.000562  0.004027  0.002033
     3 Cl   -0.000073  0.004139  0.000728
     4 O     0.026825  0.019472  0.005665
     5 Cl   -0.000415  0.000235  0.001961
     6 Cl   -0.001106 -0.000680  0.004425
     7 O    -0.000615 -0.002299 -0.000835
     8 H     0.001000 -0.000023  0.000826
     9 O     0.002324 -0.002854 -0.004856
    10 H    -0.000681  0.001590  0.001063
    11 H     0.000223 -0.006927  0.001685
    12 H    -0.034313 -0.012042  0.003578
 ----------------------------------------
 Mulliken charges used for AMS results%charges...

 dE(predicted):    -0.14458E-02, dE(actual):    -0.22193E-02, Trust radius:    1.000000, all in a.u.
 
----------------------------------------------------------------------
Geometry Convergence after Step   7       (Hartree/Angstrom,Angstrom)
----------------------------------------------------------------------
current energy                               -3.15445906 Hartree
energy change                      -0.00221933     0.00001200    F
constrained gradient max            0.03430939     0.00010000    F
constrained gradient rms            0.00906071     0.00006667    F
gradient max                        0.03430939
gradient rms                        0.00906071
cart. step max                      0.17840572     0.00100000    F
cart. step rms                      0.05439441     0.00066667    F
 
 
--------
Geometry
--------
Formula: H4Cl4O3Pa
Atoms
  Index Symbol   x (angstrom)   y (angstrom)   z (angstrom)
      1     Pa    -0.48737612    -0.71033905     0.45067171       adf.R=2.200
      2     Cl    -0.76750092     1.83646646    -0.40097539       adf.R=1.725
      3     Cl    -0.69691249    -2.90013762     2.11101297       adf.R=1.725
      4      O     1.92520301    -0.25400519     0.93642879       adf.R=1.517
      5     Cl    -2.72386025    -1.36348876    -0.69813906       adf.R=1.725
      6     Cl     0.83331548    -0.61091339    -1.95408096       adf.R=1.725
      7      O    -1.08531806     0.05598585     1.98856268       adf.R=1.517
      8      H     1.49497392    -2.92508621    -0.93920608       adf.R=1.350
      9      O     0.75049383    -2.90608123    -0.32828496       adf.R=1.517
     10      H     0.91093954    -3.52357728     0.39597109       adf.R=1.350
     11      H     2.21589413     0.56968775     1.35007096       adf.R=1.350
     12      H     2.08347802    -0.29691202    -0.02998096       adf.R=1.350
 
Total System Charge            -1.00000
Bonding info available!
 
 *** GO1_GOStep8 ***

 SOLVATION
-------------------------------------------

  The Delley construction of COSMO surface surface is calculated

       Division Level for Surface Triangles (NDIV)                  3
       Final Division Level for Triangles (NFDIV)                   1
       Radius of the Solvent (RSOL)                           1.93000 angstr
  Dielectric Constant (EPSL)                                 78.39000

       COSMO equation is solved iteratively-               conjugate-gradient

       Maximun of Iterations for Charges (NCIX)                  1000
       Criterion for Charge convergence (CCNV)                1.0E-08

  COSMO charges included variationally in SCF

       COSMO included at every SCF cycle

  Geometry-dependent empirical factor                         0.00000

  C-Matrix calculated in cspmtx

  In cspmtx, C-Matrix calculated using fitted potential

-------------------------------------------



 -------------------------------------------
  COSMO surface
  Area             =          626.429
  Volume           =         1152.297
  Number of Points =         1463
 -------------------------------------------
 
 RIHartreeFock Dependency: number of modified vectors:           8
 cosmo_calcen: 0.5 (esolb+esolc) (Hartrees) =   -0.113571

 Solvation energy (screening term,uncorrected) =    -71.266707 kcal/mol

 Solvation energy (dispersion and cavitation terms) =      1.171374 kcal/mol
 Solvation Energy Contributions (Hartrees)
          esola   esolb+esolc
     0.11357071   -0.22714143
 esol last cycle   -0.11357071
  
 Hartree-Fock exchange energy:   -603.399853125666     
 cosmo_calcen: 0.5 (esolb+esolc) (Hartrees) =   -0.113571

 Solvation energy (screening term,uncorrected) =    -71.266713 kcal/mol

 Solvation energy (dispersion and cavitation terms) =      1.171374 kcal/mol
 Solvation Energy Contributions (Hartrees)
          esola   esolb+esolc
     0.11357072   -0.22714145
 esol last cycle   -0.11357072

 Energy gradients wrt nuclear displacements
 ==========================================

     Atom      Cartesian (a.u./angstrom)
                 X         Y         Z
 ----------------------------------------
     1 Pa    0.006633  0.002823 -0.007565
     2 Cl   -0.000092  0.001644  0.000093
     3 Cl    0.000625  0.000417  0.000693
     4 O     0.023658  0.018352  0.003759
     5 Cl    0.003723  0.001855  0.002444
     6 Cl   -0.002341 -0.001405  0.000951
     7 O    -0.003224 -0.000988 -0.000624
     8 H     0.000366 -0.000229 -0.000130
     9 O     0.002133 -0.002881 -0.005518
    10 H    -0.000691  0.001637  0.001902
    11 H    -0.005206  0.000995  0.017521
    12 H    -0.025585 -0.022220 -0.013526
 ----------------------------------------
 Mulliken charges used for AMS results%charges...

 dE(predicted):    -0.31145E-02, dE(actual):    -0.39484E-02, Trust radius:    1.000000, all in a.u.
 
----------------------------------------------------------------------
Geometry Convergence after Step   8       (Hartree/Angstrom,Angstrom)
----------------------------------------------------------------------
current energy                               -3.15840741 Hartree
energy change                      -0.00394835     0.00001200    F
constrained gradient max            0.02559282     0.00010000    F
constrained gradient rms            0.00879328     0.00006667    F
gradient max                        0.02559282
gradient rms                        0.00879328
cart. step max                      0.05199055     0.00100000    F
cart. step rms                      0.02165377     0.00066667    F
 
 
--------
Geometry
--------
Formula: H4Cl4O3Pa
Atoms
  Index Symbol   x (angstrom)   y (angstrom)   z (angstrom)
      1     Pa    -0.47843303    -0.70610562     0.45909884       adf.R=2.200
      2     Cl    -0.79300723     1.82151975    -0.42312162       adf.R=1.725
      3     Cl    -0.72448168    -2.92324612     2.08555053       adf.R=1.725
      4      O     1.91026775    -0.26506624     0.92836288       adf.R=1.517
      5     Cl    -2.71507569    -1.34546203    -0.70267578       adf.R=1.725
      6     Cl     0.79572822    -0.62291434    -1.98158056       adf.R=1.725
      7      O    -1.04718878     0.07503542     2.00246038       adf.R=1.517
      8      H     1.47885387    -2.92701541    -0.94133428       adf.R=1.350
      9      O     0.75717412    -2.90273585    -0.30411760       adf.R=1.517
     10      H     0.93357810    -3.53049856     0.40765700       adf.R=1.350
     11      H     2.20044586     0.54632381     1.37783731       adf.R=1.350
     12      H     2.13546857    -0.24823550    -0.02608631       adf.R=1.350
 
Total System Charge            -1.00000
Bonding info available!
 
 *** GO1_GOStep9 ***

 SOLVATION
-------------------------------------------

  The Delley construction of COSMO surface surface is calculated

       Division Level for Surface Triangles (NDIV)                  3
       Final Division Level for Triangles (NFDIV)                   1
       Radius of the Solvent (RSOL)                           1.93000 angstr
  Dielectric Constant (EPSL)                                 78.39000

       COSMO equation is solved iteratively-               conjugate-gradient

       Maximun of Iterations for Charges (NCIX)                  1000
       Criterion for Charge convergence (CCNV)                1.0E-08

  COSMO charges included variationally in SCF

       COSMO included at every SCF cycle

  Geometry-dependent empirical factor                         0.00000

  C-Matrix calculated in cspmtx

  In cspmtx, C-Matrix calculated using fitted potential

-------------------------------------------



 -------------------------------------------
  COSMO surface
  Area             =          624.768
  Volume           =         1150.855
  Number of Points =         1458
 -------------------------------------------
 
 RIHartreeFock Dependency: number of modified vectors:           8
 cosmo_calcen: 0.5 (esolb+esolc) (Hartrees) =   -0.116633

 Solvation energy (screening term,uncorrected) =    -73.188133 kcal/mol

 Solvation energy (dispersion and cavitation terms) =      1.168269 kcal/mol
 Solvation Energy Contributions (Hartrees)
          esola   esolb+esolc
     0.11663270   -0.23326540
 esol last cycle   -0.11663270
  
 Hartree-Fock exchange energy:   -603.397611157840     
 cosmo_calcen: 0.5 (esolb+esolc) (Hartrees) =   -0.116633

 Solvation energy (screening term,uncorrected) =    -73.188128 kcal/mol

 Solvation energy (dispersion and cavitation terms) =      1.168269 kcal/mol
 Solvation Energy Contributions (Hartrees)
          esola   esolb+esolc
     0.11663269   -0.23326539
 esol last cycle   -0.11663269

 Energy gradients wrt nuclear displacements
 ==========================================

     Atom      Cartesian (a.u./angstrom)
                 X         Y         Z
 ----------------------------------------
     1 Pa    0.008878  0.006668 -0.002015
     2 Cl   -0.000342  0.000097 -0.000475
     3 Cl    0.002341 -0.002039 -0.001308
     4 O     0.009977  0.000074  0.007298
     5 Cl    0.004621  0.002281  0.001833
     6 Cl   -0.002170 -0.000318 -0.001412
     7 O    -0.004025  0.000724 -0.001139
     8 H    -0.000235 -0.000540  0.000168
     9 O     0.000308 -0.002944 -0.003232
    10 H     0.000060  0.000431  0.002378
    11 H    -0.002030  0.009289  0.015753
    12 H    -0.017382 -0.013722 -0.017849
 ----------------------------------------
 Mulliken charges used for AMS results%charges...

 dE(predicted):    -0.13311E-02, dE(actual):    -0.21670E-02, Trust radius:    1.000000, all in a.u.
 
----------------------------------------------------------------------
Geometry Convergence after Step   9       (Hartree/Angstrom,Angstrom)
----------------------------------------------------------------------
current energy                               -3.16057446 Hartree
energy change                      -0.00216704     0.00001200    F
constrained gradient max            0.01780172     0.00010000    F
constrained gradient rms            0.00649675     0.00006667    F
gradient max                        0.01780172
gradient rms                        0.00649675
cart. step max                      0.10987582     0.00100000    F
cart. step rms                      0.04275203     0.00066667    F
 
 
--------
Geometry
--------
Formula: H4Cl4O3Pa
Atoms
  Index Symbol   x (angstrom)   y (angstrom)   z (angstrom)
      1     Pa    -0.48162319    -0.70457745     0.46871396       adf.R=2.200
      2     Cl    -0.85754407     1.79255623    -0.45250154       adf.R=1.725
      3     Cl    -0.83435750    -2.94216535     2.06241727       adf.R=1.725
      4      O     1.86767677    -0.28555332     0.89404631       adf.R=1.517
      5     Cl    -2.72155242    -1.32749732    -0.71130585       adf.R=1.725
      6     Cl     0.75790752    -0.65461938    -2.01347500       adf.R=1.725
      7      O    -0.95320571     0.10068624     2.03482819       adf.R=1.517
      8      H     1.46407501    -2.90284904    -0.94779239       adf.R=1.350
      9      O     0.78707287    -2.88140837    -0.26316444       adf.R=1.517
     10      H     0.99777258    -3.53114055     0.41732211       adf.R=1.350
     11      H     2.20094470     0.47463586     1.40256447       adf.R=1.350
     12      H     2.22616351    -0.16646825    -0.00960231       adf.R=1.350
 
Total System Charge            -1.00000
Bonding info available!
 
 *** GO1_GOStep10 ***

 SOLVATION
-------------------------------------------

  The Delley construction of COSMO surface surface is calculated

       Division Level for Surface Triangles (NDIV)                  3
       Final Division Level for Triangles (NFDIV)                   1
       Radius of the Solvent (RSOL)                           1.93000 angstr
  Dielectric Constant (EPSL)                                 78.39000

       COSMO equation is solved iteratively-               conjugate-gradient

       Maximun of Iterations for Charges (NCIX)                  1000
       Criterion for Charge convergence (CCNV)                1.0E-08

  COSMO charges included variationally in SCF

       COSMO included at every SCF cycle

  Geometry-dependent empirical factor                         0.00000

  C-Matrix calculated in cspmtx

  In cspmtx, C-Matrix calculated using fitted potential

-------------------------------------------



 -------------------------------------------
  COSMO surface
  Area             =          627.821
  Volume           =         1157.022
  Number of Points =         1469
 -------------------------------------------
 
 RIHartreeFock Dependency: number of modified vectors:           8
 cosmo_calcen: 0.5 (esolb+esolc) (Hartrees) =   -0.122267

 Solvation energy (screening term,uncorrected) =    -76.724016 kcal/mol

 Solvation energy (dispersion and cavitation terms) =      1.173977 kcal/mol
 Solvation Energy Contributions (Hartrees)
          esola   esolb+esolc
     0.12226749   -0.24453498
 esol last cycle   -0.12226749
  
 Hartree-Fock exchange energy:   -603.399183295314     
 cosmo_calcen: 0.5 (esolb+esolc) (Hartrees) =   -0.122267

 Solvation energy (screening term,uncorrected) =    -76.724009 kcal/mol

 Solvation energy (dispersion and cavitation terms) =      1.173977 kcal/mol
 Solvation Energy Contributions (Hartrees)
          esola   esolb+esolc
     0.12226748   -0.24453496
 esol last cycle   -0.12226748

 Energy gradients wrt nuclear displacements
 ==========================================

     Atom      Cartesian (a.u./angstrom)
                 X         Y         Z
 ----------------------------------------
     1 Pa    0.012590  0.012673  0.005639
     2 Cl   -0.000525 -0.001359 -0.000602
     3 Cl    0.001890 -0.004568  0.000506
     4 O    -0.019723 -0.024739  0.010958
     5 Cl    0.005440  0.002456  0.001092
     6 Cl    0.000296 -0.000787 -0.002767
     7 O    -0.004762  0.001899 -0.000766
     8 H    -0.000655 -0.001395 -0.000337
     9 O     0.000896 -0.002096 -0.002958
    10 H     0.000662  0.000423  0.001558
    11 H     0.005169  0.012485  0.001917
    12 H    -0.001279  0.005007 -0.014239
 ----------------------------------------
 Mulliken charges used for AMS results%charges...
 Rebuilding optimization coordinates

 dE(predicted):    -0.21224E-02, dE(actual):    -0.25184E-02, Trust radius:    1.000000, all in a.u.
 
----------------------------------------------------------------------
Geometry Convergence after Step  10       (Hartree/Angstrom,Angstrom)
----------------------------------------------------------------------
current energy                               -3.16309282 Hartree
energy change                      -0.00251836     0.00001200    F
constrained gradient max            0.02466166     0.00010000    F
constrained gradient rms            0.00746513     0.00006667    F
gradient max                        0.02466166
gradient rms                        0.00746513
cart. step max                      0.07203029     0.00100000    F
cart. step rms                      0.02355687     0.00066667    F
 
 
--------
Geometry
--------
Formula: H4Cl4O3Pa
Atoms
  Index Symbol   x (angstrom)   y (angstrom)   z (angstrom)
      1     Pa    -0.48407932    -0.70605460     0.46668657       adf.R=2.200
      2     Cl    -0.88328285     1.78153550    -0.46243636       adf.R=1.725
      3     Cl    -0.89596727    -2.94100149     2.05445437       adf.R=1.725
      4      O     1.85318299    -0.28426896     0.86040995       adf.R=1.517
      5     Cl    -2.73387689    -1.32318587    -0.70706634       adf.R=1.725
      6     Cl     0.75118465    -0.66266872    -2.02824477       adf.R=1.725
      7      O    -0.88117542     0.10445520     2.05127532       adf.R=1.517
      8      H     1.46221625    -2.88972484    -0.94771446       adf.R=1.350
      9      O     0.80458794    -2.87180310    -0.24447078       adf.R=1.517
     10      H     1.02761089    -3.53216604     0.42039608       adf.R=1.350
     11      H     2.15904029     0.44129996     1.42312986       adf.R=1.350
     12      H     2.27388883    -0.14481773    -0.00436865       adf.R=1.350
 
Total System Charge            -1.00000
Bonding info available!
 
 *** GO1_GOStep11 ***

 SOLVATION
-------------------------------------------

  The Delley construction of COSMO surface surface is calculated

       Division Level for Surface Triangles (NDIV)                  3
       Final Division Level for Triangles (NFDIV)                   1
       Radius of the Solvent (RSOL)                           1.93000 angstr
  Dielectric Constant (EPSL)                                 78.39000

       COSMO equation is solved iteratively-               conjugate-gradient

       Maximun of Iterations for Charges (NCIX)                  1000
       Criterion for Charge convergence (CCNV)                1.0E-08

  COSMO charges included variationally in SCF

       COSMO included at every SCF cycle

  Geometry-dependent empirical factor                         0.00000

  C-Matrix calculated in cspmtx

  In cspmtx, C-Matrix calculated using fitted potential

-------------------------------------------



 -------------------------------------------
  COSMO surface
  Area             =          629.205
  Volume           =         1159.302
  Number of Points =         1471
 -------------------------------------------
 
 RIHartreeFock Dependency: number of modified vectors:           8
 cosmo_calcen: 0.5 (esolb+esolc) (Hartrees) =   -0.123742

 Solvation energy (screening term,uncorrected) =    -77.649592 kcal/mol

 Solvation energy (dispersion and cavitation terms) =      1.176565 kcal/mol
 Solvation Energy Contributions (Hartrees)
          esola   esolb+esolc
     0.12374249   -0.24748498
 esol last cycle   -0.12374249
  
 Hartree-Fock exchange energy:   -603.405990103548     
 cosmo_calcen: 0.5 (esolb+esolc) (Hartrees) =   -0.123742

 Solvation energy (screening term,uncorrected) =    -77.649571 kcal/mol

 Solvation energy (dispersion and cavitation terms) =      1.176565 kcal/mol
 Solvation Energy Contributions (Hartrees)
          esola   esolb+esolc
     0.12374246   -0.24748491
 esol last cycle   -0.12374246

 Energy gradients wrt nuclear displacements
 ==========================================

     Atom      Cartesian (a.u./angstrom)
                 X         Y         Z
 ----------------------------------------
     1 Pa    0.013354  0.015763  0.008944
     2 Cl   -0.000178 -0.001543 -0.000968
     3 Cl    0.001084 -0.004854  0.002018
     4 O    -0.016696 -0.017642  0.001482
     5 Cl    0.005402  0.002120  0.001109
     6 Cl    0.001809 -0.000262 -0.003241
     7 O    -0.005044  0.001011 -0.000576
     8 H    -0.000898 -0.001480 -0.000479
     9 O     0.002297 -0.002546 -0.002654
    10 H     0.000500  0.000889  0.000647
    11 H     0.000492  0.004614 -0.001889
    12 H    -0.002122  0.003931 -0.004394
 ----------------------------------------
 Mulliken charges used for AMS results%charges...

 dE(predicted):    -0.60934E-03, dE(actual):    -0.92114E-03, Trust radius:    1.000000, all in a.u.
 
----------------------------------------------------------------------
Geometry Convergence after Step  11       (Hartree/Angstrom,Angstrom)
----------------------------------------------------------------------
current energy                               -3.16401395 Hartree
energy change                      -0.00092114     0.00001200    F
constrained gradient max            0.01755047     0.00010000    F
constrained gradient rms            0.00599596     0.00006667    F
gradient max                        0.01755047
gradient rms                        0.00599596
cart. step max                      0.03106493     0.00100000    F
cart. step rms                      0.00868761     0.00066667    F
 
 
--------
Geometry
--------
Formula: H4Cl4O3Pa
Atoms
  Index Symbol   x (angstrom)   y (angstrom)   z (angstrom)
      1     Pa    -0.48990985    -0.71029920     0.45936378       adf.R=2.200
      2     Cl    -0.89140512     1.78163748    -0.45765009       adf.R=1.725
      3     Cl    -0.92330884    -2.93962938     2.04592281       adf.R=1.725
      4      O     1.85155167    -0.27744088     0.85512134       adf.R=1.517
      5     Cl    -2.74721598    -1.32896189    -0.70589290       adf.R=1.725
      6     Cl     0.75416100    -0.66216105    -2.03184746       adf.R=1.725
      7      O    -0.85011049     0.09763136     2.05356982       adf.R=1.517
      8      H     1.47084344    -2.88296478    -0.93780576       adf.R=1.350
      9      O     0.80881278    -2.87114471    -0.23856664       adf.R=1.517
     10      H     1.02778923    -3.53672811     0.42238325       adf.R=1.350
     11      H     2.16353576     0.44147637     1.42060215       adf.R=1.350
     12      H     2.27858649    -0.13981590    -0.00314951       adf.R=1.350
 
Total System Charge            -1.00000
Bonding info available!
 
 *** GO1_GOStep12 ***

 SOLVATION
-------------------------------------------

  The Delley construction of COSMO surface surface is calculated

       Division Level for Surface Triangles (NDIV)                  3
       Final Division Level for Triangles (NFDIV)                   1
       Radius of the Solvent (RSOL)                           1.93000 angstr
  Dielectric Constant (EPSL)                                 78.39000

       COSMO equation is solved iteratively-               conjugate-gradient

       Maximun of Iterations for Charges (NCIX)                  1000
       Criterion for Charge convergence (CCNV)                1.0E-08

  COSMO charges included variationally in SCF

       COSMO included at every SCF cycle

  Geometry-dependent empirical factor                         0.00000

  C-Matrix calculated in cspmtx

  In cspmtx, C-Matrix calculated using fitted potential

-------------------------------------------



 -------------------------------------------
  COSMO surface
  Area             =          629.847
  Volume           =         1159.954
  Number of Points =         1468
 -------------------------------------------
 
 RIHartreeFock Dependency: number of modified vectors:           8
 cosmo_calcen: 0.5 (esolb+esolc) (Hartrees) =   -0.123412

 Solvation energy (screening term,uncorrected) =    -77.442292 kcal/mol

 Solvation energy (dispersion and cavitation terms) =      1.177766 kcal/mol
 Solvation Energy Contributions (Hartrees)
          esola   esolb+esolc
     0.12341213   -0.24682427
 esol last cycle   -0.12341213
  
 Hartree-Fock exchange energy:   -603.406897189885     
 cosmo_calcen: 0.5 (esolb+esolc) (Hartrees) =   -0.123412

 Solvation energy (screening term,uncorrected) =    -77.442287 kcal/mol

 Solvation energy (dispersion and cavitation terms) =      1.177766 kcal/mol
 Solvation Energy Contributions (Hartrees)
          esola   esolb+esolc
     0.12341213   -0.24682426
 esol last cycle   -0.12341213

 Energy gradients wrt nuclear displacements
 ==========================================

     Atom      Cartesian (a.u./angstrom)
                 X         Y         Z
 ----------------------------------------
     1 Pa    0.011069  0.015510  0.008316
     2 Cl    0.000160 -0.001001 -0.000717
     3 Cl    0.000934 -0.004289  0.002416
     4 O    -0.013503 -0.014979 -0.001246
     5 Cl    0.004561  0.001423  0.001015
     6 Cl    0.002430 -0.000072 -0.003599
     7 O    -0.004615  0.000479 -0.000573
     8 H    -0.000889 -0.001275 -0.000529
     9 O     0.002591 -0.002924 -0.002607
    10 H     0.000407  0.000709  0.000626
    11 H     0.000767  0.002896 -0.003699
    12 H    -0.003914  0.003524  0.000597
 ----------------------------------------
 Mulliken charges used for AMS results%charges...

 dE(predicted):    -0.30945E-03, dE(actual):    -0.55056E-03, Trust radius:    1.000000, all in a.u.
 
----------------------------------------------------------------------
Geometry Convergence after Step  12       (Hartree/Angstrom,Angstrom)
----------------------------------------------------------------------
current energy                               -3.16456452 Hartree
energy change                      -0.00055056     0.00001200    F
constrained gradient max            0.01544861     0.00010000    F
constrained gradient rms            0.00529145     0.00006667    F
gradient max                        0.01544861
gradient rms                        0.00529145
cart. step max                      0.20398431     0.00100000    F
cart. step rms                      0.05289162     0.00066667    F
 
 
--------
Geometry
--------
Formula: H4Cl4O3Pa
Atoms
  Index Symbol   x (angstrom)   y (angstrom)   z (angstrom)
      1     Pa    -0.51044279    -0.73059063     0.43189066       adf.R=2.200
      2     Cl    -0.94712948     1.76548041    -0.45323156       adf.R=1.725
      3     Cl    -1.08827120    -2.93732750     1.99007486       adf.R=1.725
      4      O     1.83939736    -0.24914867     0.81825979       adf.R=1.517
      5     Cl    -2.81228594    -1.33273334    -0.68787471       adf.R=1.725
      6     Cl     0.74243701    -0.68559713    -2.06045319       adf.R=1.725
      7      O    -0.64612618     0.07197175     2.06247583       adf.R=1.517
      8      H     1.51167139    -2.83820905    -0.89507520       adf.R=1.350
      9      O     0.84294095    -2.85671684    -0.20236592       adf.R=1.517
     10      H     1.05559309    -3.54930195     0.43136714       adf.R=1.350
     11      H     2.13441516     0.42189183     1.44003385       adf.R=1.350
     12      H     2.33113070    -0.10811954     0.00694925       adf.R=1.350
 
Total System Charge            -1.00000
Bonding info available!
 
 *** GO1_GOStep13 ***

 SOLVATION
-------------------------------------------

  The Delley construction of COSMO surface surface is calculated

       Division Level for Surface Triangles (NDIV)                  3
       Final Division Level for Triangles (NFDIV)                   1
       Radius of the Solvent (RSOL)                           1.93000 angstr
  Dielectric Constant (EPSL)                                 78.39000

       COSMO equation is solved iteratively-               conjugate-gradient

       Maximun of Iterations for Charges (NCIX)                  1000
       Criterion for Charge convergence (CCNV)                1.0E-08

  COSMO charges included variationally in SCF

       COSMO included at every SCF cycle

  Geometry-dependent empirical factor                         0.00000

  C-Matrix calculated in cspmtx

  In cspmtx, C-Matrix calculated using fitted potential

-------------------------------------------



 -------------------------------------------
  COSMO surface
  Area             =          630.200
  Volume           =         1159.162
  Number of Points =         1460
 -------------------------------------------
 
 RIHartreeFock Dependency: number of modified vectors:           8
 cosmo_calcen: 0.5 (esolb+esolc) (Hartrees) =   -0.123171

 Solvation energy (screening term,uncorrected) =    -77.291277 kcal/mol

 Solvation energy (dispersion and cavitation terms) =      1.178425 kcal/mol
 Solvation Energy Contributions (Hartrees)
          esola   esolb+esolc
     0.12317148   -0.24634295
 esol last cycle   -0.12317148
  
 Hartree-Fock exchange energy:   -603.409775922115     
 cosmo_calcen: 0.5 (esolb+esolc) (Hartrees) =   -0.123171

 Solvation energy (screening term,uncorrected) =    -77.291241 kcal/mol

 Solvation energy (dispersion and cavitation terms) =      1.178425 kcal/mol
 Solvation Energy Contributions (Hartrees)
          esola   esolb+esolc
     0.12317142   -0.24634284
 esol last cycle   -0.12317142

 Energy gradients wrt nuclear displacements
 ==========================================

     Atom      Cartesian (a.u./angstrom)
                 X         Y         Z
 ----------------------------------------
     1 Pa    0.002338  0.015729  0.008109
     2 Cl    0.001347  0.000428 -0.000788
     3 Cl   -0.000548 -0.003577  0.003820
     4 O    -0.002643 -0.003791 -0.007023
     5 Cl    0.001865 -0.001178  0.001518
     6 Cl    0.004989 -0.000084 -0.005052
     7 O    -0.001010 -0.000469 -0.001309
     8 H    -0.000656 -0.000337 -0.000603
     9 O     0.004625 -0.003517 -0.003150
    10 H    -0.000064  0.000274 -0.000249
    11 H    -0.000753 -0.003504 -0.006860
    12 H    -0.009490  0.000025  0.011587
 ----------------------------------------
 Mulliken charges used for AMS results%charges...

 dE(predicted):    -0.30639E-02, dE(actual):    -0.21536E-02, Trust radius:    1.000000, all in a.u.
 
----------------------------------------------------------------------
Geometry Convergence after Step  13       (Hartree/Angstrom,Angstrom)
----------------------------------------------------------------------
current energy                               -3.16671811 Hartree
energy change                      -0.00215359     0.00001200    F
constrained gradient max            0.01564800     0.00010000    F
constrained gradient rms            0.00473941     0.00006667    F
gradient max                        0.01564800
gradient rms                        0.00473941
cart. step max                      0.20839454     0.00100000    F
cart. step rms                      0.05447868     0.00066667    F
 
 
--------
Geometry
--------
Formula: H4Cl4O3Pa
Atoms
  Index Symbol   x (angstrom)   y (angstrom)   z (angstrom)
      1     Pa    -0.52207957    -0.75671990     0.40552054       adf.R=2.200
      2     Cl    -1.01197595     1.74420063    -0.43334558       adf.R=1.725
      3     Cl    -1.24774737    -2.93585193     1.91762765       adf.R=1.725
      4      O     1.84167662    -0.20899288     0.78749170       adf.R=1.517
      5     Cl    -2.86863345    -1.32056210    -0.67819711       adf.R=1.725
      6     Cl     0.71127696    -0.70779531    -2.09369730       adf.R=1.725
      7      O    -0.43773165     0.02667388     2.04894966       adf.R=1.517
      8      H     1.55480663    -2.80437495    -0.83505655       adf.R=1.350
      9      O     0.87001026    -2.85106530    -0.15956724       adf.R=1.517
     10      H     1.06798234    -3.56863022     0.45002720       adf.R=1.350
     11      H     2.11507648     0.41765539     1.45957451       adf.R=1.350
     12      H     2.38066879    -0.06293800     0.01272330       adf.R=1.350
 
Total System Charge            -1.00000
Bonding info available!
 
 *** GO1_GOStep14 ***

 SOLVATION
-------------------------------------------

  The Delley construction of COSMO surface surface is calculated

       Division Level for Surface Triangles (NDIV)                  3
       Final Division Level for Triangles (NFDIV)                   1
       Radius of the Solvent (RSOL)                           1.93000 angstr
  Dielectric Constant (EPSL)                                 78.39000

       COSMO equation is solved iteratively-               conjugate-gradient

       Maximun of Iterations for Charges (NCIX)                  1000
       Criterion for Charge convergence (CCNV)                1.0E-08

  COSMO charges included variationally in SCF

       COSMO included at every SCF cycle

  Geometry-dependent empirical factor                         0.00000

  C-Matrix calculated in cspmtx

  In cspmtx, C-Matrix calculated using fitted potential

-------------------------------------------



 -------------------------------------------
  COSMO surface
  Area             =          633.602
  Volume           =         1160.709
  Number of Points =         1480
 -------------------------------------------
 
 RIHartreeFock Dependency: number of modified vectors:           8
 cosmo_calcen: 0.5 (esolb+esolc) (Hartrees) =   -0.123073

 Solvation energy (screening term,uncorrected) =    -77.229767 kcal/mol

 Solvation energy (dispersion and cavitation terms) =      1.184787 kcal/mol
 Solvation Energy Contributions (Hartrees)
          esola   esolb+esolc
     0.12307345   -0.24614691
 esol last cycle   -0.12307345
  
 Hartree-Fock exchange energy:   -603.409778903777     
 cosmo_calcen: 0.5 (esolb+esolc) (Hartrees) =   -0.123073

 Solvation energy (screening term,uncorrected) =    -77.229730 kcal/mol

 Solvation energy (dispersion and cavitation terms) =      1.184787 kcal/mol
 Solvation Energy Contributions (Hartrees)
          esola   esolb+esolc
     0.12307340   -0.24614679
 esol last cycle   -0.12307340

 Energy gradients wrt nuclear displacements
 ==========================================

     Atom      Cartesian (a.u./angstrom)
                 X         Y         Z
 ----------------------------------------
     1 Pa   -0.005485  0.011216  0.004771
     2 Cl    0.001545  0.001118 -0.001227
     3 Cl   -0.002360 -0.003344  0.002819
     4 O     0.003141  0.005266 -0.001436
     5 Cl   -0.000679 -0.003202  0.002416
     6 Cl    0.005965  0.000569 -0.007365
     7 O     0.007877  0.001195 -0.003494
     8 H    -0.000440  0.001034 -0.000490
     9 O     0.005491 -0.004654 -0.002161
    10 H    -0.000631 -0.000104 -0.000944
    11 H    -0.000828 -0.006097 -0.006554
    12 H    -0.013597 -0.002997  0.013665
 ----------------------------------------
 Mulliken charges used for AMS results%charges...

 dE(predicted):    -0.92953E-03, dE(actual):    -0.74217E-03, Trust radius:    1.000000, all in a.u.
 
----------------------------------------------------------------------
Geometry Convergence after Step  14       (Hartree/Angstrom,Angstrom)
----------------------------------------------------------------------
current energy                               -3.16746028 Hartree
energy change                      -0.00074217     0.00001200    F
constrained gradient max            0.01368599     0.00010000    F
constrained gradient rms            0.00513917     0.00006667    F
gradient max                        0.01368599
gradient rms                        0.00513917
cart. step max                      0.07436926     0.00100000    F
cart. step rms                      0.02400790     0.00066667    F
 
 
--------
Geometry
--------
Formula: H4Cl4O3Pa
Atoms
  Index Symbol   x (angstrom)   y (angstrom)   z (angstrom)
      1     Pa    -0.50647535    -0.75881515     0.40734426       adf.R=2.200
      2     Cl    -0.99548991     1.74980530    -0.41287226       adf.R=1.725
      3     Cl    -1.18771441    -2.94210142     1.92763320       adf.R=1.725
      4      O     1.86394019    -0.18784766     0.79176899       adf.R=1.517
      5     Cl    -2.84215884    -1.31381617    -0.69918355       adf.R=1.725
      6     Cl     0.71493727    -0.69043433    -2.08782965       adf.R=1.725
      7      O    -0.51210090     0.01521698     2.05767641       adf.R=1.517
      8      H     1.54223485    -2.84329874    -0.83149186       adf.R=1.350
      9      O     0.84612605    -2.87639886    -0.16683882       adf.R=1.517
     10      H     1.02646273    -3.59033460     0.45302709       adf.R=1.350
     11      H     2.12847013     0.45973178     1.45043297       adf.R=1.350
     12      H     2.37509826    -0.05010782    -0.00761600       adf.R=1.350
 
Total System Charge            -1.00000
Bonding info available!
 
 *** GO1_GOStep15 ***

 SOLVATION
-------------------------------------------

  The Delley construction of COSMO surface surface is calculated

       Division Level for Surface Triangles (NDIV)                  3
       Final Division Level for Triangles (NFDIV)                   1
       Radius of the Solvent (RSOL)                           1.93000 angstr
  Dielectric Constant (EPSL)                                 78.39000

       COSMO equation is solved iteratively-               conjugate-gradient

       Maximun of Iterations for Charges (NCIX)                  1000
       Criterion for Charge convergence (CCNV)                1.0E-08

  COSMO charges included variationally in SCF

       COSMO included at every SCF cycle

  Geometry-dependent empirical factor                         0.00000

  C-Matrix calculated in cspmtx

  In cspmtx, C-Matrix calculated using fitted potential

-------------------------------------------



 -------------------------------------------
  COSMO surface
  Area             =          632.721
  Volume           =         1160.183
  Number of Points =         1476
 -------------------------------------------
 
 RIHartreeFock Dependency: number of modified vectors:           8
 cosmo_calcen: 0.5 (esolb+esolc) (Hartrees) =   -0.123436

 Solvation energy (screening term,uncorrected) =    -77.457086 kcal/mol

 Solvation energy (dispersion and cavitation terms) =      1.183140 kcal/mol
 Solvation Energy Contributions (Hartrees)
          esola   esolb+esolc
     0.12343571   -0.24687142
 esol last cycle   -0.12343571
  
 Hartree-Fock exchange energy:   -603.406040278887     
 cosmo_calcen: 0.5 (esolb+esolc) (Hartrees) =   -0.123436

 Solvation energy (screening term,uncorrected) =    -77.457066 kcal/mol

 Solvation energy (dispersion and cavitation terms) =      1.183140 kcal/mol
 Solvation Energy Contributions (Hartrees)
          esola   esolb+esolc
     0.12343568   -0.24687136
 esol last cycle   -0.12343568

 Energy gradients wrt nuclear displacements
 ==========================================

     Atom      Cartesian (a.u./angstrom)
                 X         Y         Z
 ----------------------------------------
     1 Pa   -0.003018  0.009694  0.003312
     2 Cl    0.001132  0.000534 -0.000503
     3 Cl    0.000190 -0.001248  0.002148
     4 O     0.006930  0.006261 -0.001135
     5 Cl   -0.000831 -0.002049  0.001256
     6 Cl    0.004665  0.001962 -0.007686
     7 O     0.002610  0.000053 -0.001147
     8 H    -0.000724  0.001273 -0.000410
     9 O     0.002879 -0.006639 -0.000186
    10 H    -0.000407 -0.000511 -0.000551
    11 H    -0.002629 -0.004300 -0.001089
    12 H    -0.010798 -0.005029  0.005989
 ----------------------------------------
 Mulliken charges used for AMS results%charges...

 dE(predicted):    -0.61460E-03, dE(actual):    -0.66959E-03, Trust radius:    1.000000, all in a.u.
 
----------------------------------------------------------------------
Geometry Convergence after Step  15       (Hartree/Angstrom,Angstrom)
----------------------------------------------------------------------
current energy                               -3.16812986 Hartree
energy change                      -0.00066959     0.00001200    F
constrained gradient max            0.01089142     0.00010000    F
constrained gradient rms            0.00397631     0.00006667    F
gradient max                        0.01089142
gradient rms                        0.00397631
cart. step max                      0.04894982     0.00100000    F
cart. step rms                      0.01976274     0.00066667    F
 
 
--------
Geometry
--------
Formula: H4Cl4O3Pa
Atoms
  Index Symbol   x (angstrom)   y (angstrom)   z (angstrom)
      1     Pa    -0.49420315    -0.77272506     0.41228041       adf.R=2.200
      2     Cl    -1.01366457     1.73506161    -0.38716297       adf.R=1.725
      3     Cl    -1.21787675    -2.95644199     1.90359769       adf.R=1.725
      4      O     1.87554583    -0.16315730     0.77148314       adf.R=1.517
      5     Cl    -2.83126826    -1.27295688    -0.72510532       adf.R=1.725
      6     Cl     0.68507455    -0.70979197    -2.09497661       adf.R=1.725
      7      O    -0.50535079    -0.00811766     2.06828175       adf.R=1.517
      8      H     1.54612657    -2.86040060    -0.81106524       adf.R=1.350
      9      O     0.84793455    -2.88677874    -0.14822614       adf.R=1.517
     10      H     1.02083448    -3.60494236     0.46884760       adf.R=1.350
     11      H     2.14251438     0.47300826     1.44442686       adf.R=1.350
     12      H     2.39766324    -0.00115799    -0.02033040       adf.R=1.350
 
Total System Charge            -1.00000
Bonding info available!
 
 *** GO1_GOStep16 ***

 SOLVATION
-------------------------------------------

  The Delley construction of COSMO surface surface is calculated

       Division Level for Surface Triangles (NDIV)                  3
       Final Division Level for Triangles (NFDIV)                   1
       Radius of the Solvent (RSOL)                           1.93000 angstr
  Dielectric Constant (EPSL)                                 78.39000

       COSMO equation is solved iteratively-               conjugate-gradient

       Maximun of Iterations for Charges (NCIX)                  1000
       Criterion for Charge convergence (CCNV)                1.0E-08

  COSMO charges included variationally in SCF

       COSMO included at every SCF cycle

  Geometry-dependent empirical factor                         0.00000

  C-Matrix calculated in cspmtx

  In cspmtx, C-Matrix calculated using fitted potential

-------------------------------------------



 -------------------------------------------
  COSMO surface
  Area             =          633.861
  Volume           =         1163.196
  Number of Points =         1482
 -------------------------------------------
 
 RIHartreeFock Dependency: number of modified vectors:           8
 cosmo_calcen: 0.5 (esolb+esolc) (Hartrees) =   -0.125739

 Solvation energy (screening term,uncorrected) =    -78.902735 kcal/mol

 Solvation energy (dispersion and cavitation terms) =      1.185272 kcal/mol
[...]
     8     H       0.335924   0.062182   0.342587
     9     O       0.001184   0.045916  -0.023657
    10     H      -0.346314  -0.800670   0.036844
    11     H      -0.000254   0.025611  -0.004013
    12     H       0.010364  -0.005753  -0.008592
 
 Mode:    34      Frequency (cm-1):     3766.5608     Intensity (km/mol):      118.6049
 Index  Atom      ---- Displacements (x/y/z) ----
     1    Pa       0.000058   0.000011  -0.000011
     2    Cl       0.000033   0.000151  -0.000025
     3    Cl      -0.000008  -0.000024  -0.000009
     4     O       0.021210   0.037788  -0.027064
     5    Cl      -0.000028   0.000026  -0.000003
     6    Cl      -0.000023  -0.000005  -0.000054
     7     O      -0.000045  -0.000005   0.000175
     8     H       0.012207   0.002958   0.012713
     9     O      -0.000193   0.001092  -0.000855
    10     H      -0.009524  -0.022426   0.000831
    11     H       0.002003  -0.842652   0.132412
    12     H      -0.349857   0.237560   0.300066
 
 Mode:    35      Frequency (cm-1):     3859.4590     Intensity (km/mol):      279.5735
 Index  Atom      ---- Displacements (x/y/z) ----
     1    Pa       0.000004  -0.000010   0.000001
     2    Cl      -0.000004   0.000035   0.000012
     3    Cl      -0.000009   0.000077  -0.000011
     4     O       0.001373  -0.001794  -0.001046
     5    Cl      -0.000021   0.000010  -0.000002
     6    Cl       0.000003  -0.000001  -0.000024
     7     O      -0.000044   0.000028   0.000083
     8     H      -0.598467  -0.077317  -0.636248
     9     O       0.048724   0.032413   0.037373
    10     H      -0.173834  -0.439156   0.042808
    11     H       0.000879   0.014590  -0.003309
    12     H      -0.022815   0.013574   0.019550
 
 Mode:    36      Frequency (cm-1):     3863.5539     Intensity (km/mol):      266.2982
 Index  Atom      ---- Displacements (x/y/z) ----
     1    Pa       0.000006   0.000006  -0.000005
     2    Cl      -0.000035  -0.000073   0.000018
     3    Cl      -0.000006  -0.000018  -0.000000
     4     O       0.035820  -0.054061  -0.026007
     5    Cl      -0.000017  -0.000005  -0.000003
     6    Cl      -0.000007  -0.000007  -0.000029
     7     O      -0.000008  -0.000011   0.000071
     8     H       0.020897   0.003096   0.022827
     9     O      -0.001771  -0.001231  -0.001335
    10     H       0.006911   0.016618  -0.001472
    11     H       0.016583   0.500090  -0.099870
    12     H      -0.583718   0.360006   0.512980

 Vibrational polarizability tensor (a.u.):
                  X                   Y                   Z
 X            2888.51711          -217.34284            35.88213
 Y            -217.34284          2415.59619           156.98033
 Z              35.88213           156.98033          1530.63261

 Isotropic =      2278.2    atomic units

PES point character: Geometry corresponds to a local minimum on the PES.




 ============================
 Statistical Thermal Analysis  ***  ideal gas assumed  ***
 ============================
  
 Pressure:                  1.000000 atm.
 Temperature:             298.150000 K



 Moments of Inertia [amu*bohr^2] and principal axis
 ==================================================

        2563.8053       3028.3770       3603.9093
 ------------------------------------------------
           0.1828          0.9831         -0.0037
           0.9831         -0.1828          0.0062
          -0.0054          0.0048          1.0000


 The rotational contribution to the molecular entropy includes
 a term, dependent on the symmetry number sigma. The results 
 reported below were computed using sigma = 1, determined from
 the point group symmetry of the input geometry (NOSYM). 
 If this is not the correct symmetry, try symmetrizing the molecule before
 running the calculation (note: linear molecules should be aligned along one
 of the Cartesian axes).
 Contributions from frequencies below 20 1/cm are not included in vibrational sums.
 Their contributions, if any, are reported separately.


     Temp                                                        Transl      Rotat     Vibrat     Total
     ----                                                        ------      -----     ------     -----

     298.15   Entropy (cal/mol-K):                               44.016     31.704     54.894    130.614
              Nuclear Internal Energy (kcal/mol):                 0.889      0.889     42.808     44.586
              Constant Volume Heat Capacity (cal/mol-K):          2.981      2.981     41.502     47.464
          (c) Constant Volume Heat Capacity (cal/mol-K):          2.981      2.981     36.457     42.419

       Summary of energy terms
                                                   hartree              eV         kcal/mol           kJ/mol
                                      --------------------     -----------       ----------      -----------
      Energy from Engine:               -3.183083984569972        -86.6161         -1997.42         -8357.19
      Nuclear Internal Energy:           0.071051564207275          1.9334            44.59           186.55
  (c) Nuclear Internal Energy:           0.068440209909707          1.8624            42.95           179.69
      Internal Energy U:                -3.112032420362697        -84.6827         -1952.83         -8170.64
      pV/n = RT:                         0.000944186013486          0.0257             0.59             2.48
      Enthalpy H:                       -3.111088234349211        -84.6570         -1952.24         -8168.16
      -T*S:                             -0.062058872135378         -1.6887           -38.94          -162.94
  (c) -T*S:                             -0.060193638540090         -1.6380           -37.77          -158.04
      Gibbs free energy:                -3.173147106484588        -86.3457         -1991.18         -8331.10
 
 
 
  (c) The properties marked with this symbol have been corrected using 'low vibrational frequency free rotor
      interpolation corrections'. For those terms all positive frequencies are used (also ones below 20 1/cm),
      but the contribution to the partition function of small vibrational frequencies is modified as described
      in the following paper:
      S. Grimme, 'Supramolecular Binding Thermodynamics by Dispersion-Corrected Density Functional Theory'
      (Chem. Eur. J. 2012, 18, 9955-9964)
      Configuration: Dampener Frequency          :   100.000 1/cm
                     Dampener Alpha              :     4.000
                     Averaging Moment of Inertia : 1.000E-44 kg m2

--------------
Atomic charges
--------------
  Index   Atom    Charge
      1     Pa    1.7400
      2     Cl   -0.5734
      3     Cl   -0.5738
      4      O   -0.4295
      5     Cl   -0.5409
      6     Cl   -0.4421
      7      O   -0.7875
      8      H    0.2584
      9      O   -0.4304
     10      H    0.2604
     11      H    0.2621
     12      H    0.2567


Dipole moment vector    (Debye):    16.82024892    1.48845898    0.54669758
              magnitude (Debye):    16.89482649


-----------------------
Molecular orbitals info
-----------------------
n orbitals:              393
n spin:                    1

Note: only printing virtual orbitals with
      energy smaller than HOMO + 100. eV

HOMO (eV):              -7.9728
LUMO (eV):              -2.0050
HOMO-LUMO gap (eV):      5.9678

   Index   Energy (eV)    Occupation
     280       91.3465         0.000       
     279       90.2038         0.000       
     278       88.9348         0.000       
     277       88.0171         0.000       
     276       87.5161         0.000       
     275       86.1962         0.000       
     274       84.3316         0.000       
     273       83.8728         0.000       
     272       83.4296         0.000       
     271       82.0371         0.000       
     270       81.7133         0.000       
     269       80.9575         0.000       
     268       78.6786         0.000       
     267       78.1247         0.000       
     266       76.2954         0.000       
     265       75.5551         0.000       
     264       75.4751         0.000       
     263       74.3636         0.000       
     262       74.2073         0.000       
     261       73.6618         0.000       
     260       73.2426         0.000       
     259       72.4431         0.000       
     258       71.8961         0.000       
     257       70.9235         0.000       
     256       70.7001         0.000       
     255       70.5858         0.000       
     254       70.3462         0.000       
     253       69.5118         0.000       
     252       69.1051         0.000       
     251       68.2995         0.000       
     250       68.1812         0.000       
     249       67.3096         0.000       
     248       66.8930         0.000       
     247       65.7784         0.000       
     246       64.7305         0.000       
     245       63.4879         0.000       
     244       60.5574         0.000       
     243       60.0853         0.000       
     242       59.7014         0.000       
     241       57.8423         0.000       
     240       56.4372         0.000       
     239       54.9443         0.000       
     238       54.5025         0.000       
     237       54.1823         0.000       
     236       53.5043         0.000       
     235       52.0753         0.000       
     234       50.6352         0.000       
     233       50.1453         0.000       
     232       48.4098         0.000       
     231       47.6420         0.000       
     230       47.0163         0.000       
     229       44.7190         0.000       
     228       42.9352         0.000       
     227       42.7921         0.000       
     226       42.5935         0.000       
     225       41.8050         0.000       
     224       41.4104         0.000       
     223       41.0246         0.000       
     222       40.7302         0.000       
     221       40.6592         0.000       
     220       40.1219         0.000       
     219       39.9216         0.000       
     218       39.3767         0.000       
     217       39.2456         0.000       
     216       38.8051         0.000       
     215       38.5011         0.000       
     214       38.1096         0.000       
     213       37.8329         0.000       
     212       37.5557         0.000       
     211       37.5279         0.000       
     210       37.4220         0.000       
     209       37.2771         0.000       
     208       37.0766         0.000       
     207       36.9656         0.000       
     206       36.8200         0.000       
     205       36.6948         0.000       
     204       36.5677         0.000       
     203       36.3655         0.000       
     202       36.2620         0.000       
     201       36.2391         0.000       
     200       36.1147         0.000       
     199       35.7866         0.000       
     198       35.5612         0.000       
     197       35.2009         0.000       
     196       34.6901         0.000       
     195       34.6374         0.000       
     194       34.4662         0.000       
     193       33.9823         0.000       
     192       33.0581         0.000       
     191       32.9373         0.000       
     190       31.6701         0.000       
     189       31.2332         0.000       
     188       29.7587         0.000       
     187       29.6060         0.000       
     186       28.5141         0.000       
     185       27.6071         0.000       
     184       27.1945         0.000       
     183       25.8167         0.000       
     182       25.4095         0.000       
     181       24.7379         0.000       
     180       24.3713         0.000       
     179       24.0126         0.000       
     178       23.7085         0.000       
     177       22.9921         0.000       
     176       22.7136         0.000       
     175       22.5437         0.000       
     174       22.0963         0.000       
     173       21.8966         0.000       
     172       21.1845         0.000       
     171       20.5815         0.000       
     170       20.4882         0.000       
     169       19.8117         0.000       
     168       19.4358         0.000       
     167       18.4045         0.000       
     166       18.0998         0.000       
     165       17.5619         0.000       
     164       17.3265         0.000       
     163       17.0668         0.000       
     162       16.8774         0.000       
     161       16.2068         0.000       
     160       16.1445         0.000       
     159       15.9816         0.000       
     158       15.6461         0.000       
     157       15.5005         0.000       
     156       15.3666         0.000       
     155       15.1142         0.000       
     154       14.8379         0.000       
     153       14.6303         0.000       
     152       14.1941         0.000       
     151       14.0640         0.000       
     150       13.9829         0.000       
     149       13.7290         0.000       
     148       13.6402         0.000       
     147       13.4027         0.000       
     146       13.1810         0.000       
     145       12.8742         0.000       
     144       12.5650         0.000       
     143       12.0085         0.000       
     142       11.9988         0.000       
     141       11.6231         0.000       
     140       11.3196         0.000       
     139       11.0104         0.000       
     138       10.7289         0.000       
     137       10.5872         0.000       
     136       10.2786         0.000       
     135       10.2406         0.000       
     134        9.7328         0.000       
     133        9.7053         0.000       
     132        9.4498         0.000       
     131        9.3386         0.000       
     130        9.2686         0.000       
     129        9.0373         0.000       
     128        8.8270         0.000       
     127        8.4999         0.000       
     126        8.2019         0.000       
     125        7.9828         0.000       
     124        7.4543         0.000       
     123        7.3300         0.000       
     122        7.1362         0.000       
     121        6.8463         0.000       
     120        5.9178         0.000       
     119        5.5136         0.000       
     118        5.3337         0.000       
     117        3.9768         0.000       
     116        3.9505         0.000       
     115        3.8151         0.000       
     114        3.0347         0.000       
     113        2.7226         0.000       
     112        2.6308         0.000       
     111        2.3976         0.000       
     110        2.3135         0.000       
     109        2.1099         0.000       
     108        1.7511         0.000       
     107        1.6884         0.000       
     106        1.6097         0.000       
     105        1.3049         0.000       
     104        1.0066         0.000       
     103        0.5635         0.000       
     102       -0.0947         0.000       
     101       -0.9585         0.000       
     100       -1.6337         0.000       
      99       -1.6493         0.000       
      98       -1.7804         0.000       
      97       -1.9207         0.000       
      96       -1.9759         0.000       
      95       -2.0050         0.000 < LUMO
      94       -7.9728         2.000 < HOMO
      93       -8.2410         2.000       
      92       -8.2731         2.000       
      91       -8.4533         2.000       
      90       -8.5167         2.000       
      89       -8.6505         2.000       
      88       -8.8141         2.000       
      87       -9.1047         2.000       
      86       -9.1921         2.000       
      85       -9.2336         2.000       
      84       -9.2929         2.000       
      83       -9.6863         2.000       
      82      -10.1544         2.000       
      81      -10.2475         2.000       
      80      -10.4780         2.000       
      79      -10.9170         2.000       
      78      -11.0901         2.000       
      77      -12.6296         2.000       
      76      -13.2745         2.000       
      75      -16.0078         2.000       
      74      -16.4889         2.000       
      73      -20.7354         2.000       
      72      -21.1911         2.000       
      71      -21.3795         2.000       
      70      -21.6813         2.000       
      69      -22.7441         2.000       
      68      -25.8165         2.000       
      67      -25.9597         2.000       
      66      -29.6585         2.000       
      65      -29.9225         2.000       
      64      -29.9738         2.000       
      63      -50.4628         2.000       
      62     -100.3527         2.000       
      61     -100.3993         2.000       
      60     -100.4046         2.000       
      59     -100.5049         2.000       
      58     -100.5110         2.000       
      57     -196.1033         2.000       
      56     -196.1057         2.000       
      55     -196.1070         2.000       
      54     -196.1093         2.000       
      53     -196.1231         2.000       
      52     -196.1251         2.000       
      51     -196.1377         2.000       
      50     -196.1409         2.000       
      49     -196.1556         2.000       
      48     -196.6004         2.000       
      47     -196.6023         2.000       
      46     -196.6350         2.000       
      45     -207.4891         2.000       
      44     -207.7712         2.000       
      43     -207.7829         2.000       
      42     -259.6664         2.000       
      41     -259.6699         2.000       
      40     -259.6858         2.000       
      39     -260.1644         2.000       
      38     -306.2041         2.000       
      37     -361.4386         2.000       
      36     -361.4725         2.000       
      35     -361.4810         2.000       
      34     -361.6129         2.000       
      33     -361.6224         2.000       
      32     -361.7581         2.000       
      31     -361.7611         2.000       
      30     -522.8089         2.000       
      29     -524.4163         2.000       
      28     -524.4189         2.000       
      27     -713.2544         2.000       
      26     -713.4076         2.000       
      25     -713.4157         2.000       
      24     -713.6007         2.000       
      23     -713.6168         2.000       
      22    -1041.5327         2.000       
      21    -1041.8612         2.000       
      20    -1041.8760         2.000       
      19    -1359.9345         2.000       
      18    -2775.8481         2.000       
      17    -2775.8518         2.000       
      16    -2775.8660         2.000       
      15    -2776.3472         2.000       
      14    -3485.1433         2.000       
      13    -3485.2020         2.000       
      12    -3485.2054         2.000       
      11    -3485.2922         2.000       
      10    -3485.2979         2.000       
       9    -4347.3517         2.000       
       8    -4347.5357         2.000       
       7    -4347.5435         2.000       
       6    -5318.5373         2.000       
       5   -17561.4822         2.000       
       4   -17561.5082         2.000       
       3   -17561.5091         2.000       
       2   -21037.2992         2.000       
       1  -112699.0759         2.000       

Final PES point is a local minimum. Geometry optimization successful!


AMS application finished. Exiting.
NORMAL TERMINATION
     Total cpu time:   40432.60
  Total system time:    1077.21
 Total elapsed time:   41534.50
