

 Parallel Execution: Process Information
 ==============================================================================
 Rank   Node Name                              NodeID   MyNodeRank  NodeMaster
    0   u-0-5.local                               0          0          0
    1   u-0-5.local                               0          1         -1
    2   u-0-5.local                               0          2         -1
    3   u-0-5.local                               0          3         -1
    4   u-0-5.local                               1          0          1
    5   u-0-5.local                               1          1         -1
    6   u-0-5.local                               1          2         -1
    7   u-0-5.local                               1          3         -1
    8   u-0-5.local                               2          0          2
    9   u-0-5.local                               2          1         -1
   10   u-0-5.local                               2          2         -1
   11   u-0-5.local                               2          3         -1
   12   u-0-5.local                               3          0          3
   13   u-0-5.local                               3          1         -1
   14   u-0-5.local                               3          2         -1
   15   u-0-5.local                               3          3         -1
 ==============================================================================


May use up to 31228MB of RAM as shared memory on node 0
May use up to 31250MB of RAM as shared memory on node 1
May use up to 31250MB of RAM as shared memory on node 2
May use up to 31250MB of RAM as shared memory on node 3

 *******************************************************************************
 *                                                                             *
 *  --------------------------------                                           *
 *   Amsterdam Modeling Suite (AMS)              2023.104                      *
 *  --------------------------------                                           *
 *                                               r115785 2023-10-06            *
 *                                                                             *
 *                                                                             *
 *                              =================                              *
 *                              |               |                              *
 *                              |     A M S     |                              *
 *                              |               |                              *
 *                              =================                              *
 *                                                                             *
 *                                                                             *
 *   Online information and documentation:  https://www.scm.com/support/       *
 *   E-mail:  support@scm.com   info@scm.com                                   *
 *                                                                             *
 *   Scientific publications using AMS results must be properly referenced     *
 *   See the User Manuals (or the web site) for recommended citations          *
 *   The terms and conditions of the End User License Agreement apply to       *
 *   the use of AMS, https://www.scm.com/license-terms/                        *
 *                                                                             *
 **********************  x86_64_linux_intel / intelmpi  ************************
 
 Licensed to: Dr. Val?rie Vallet / Laboratoire PhLAM UMR 8523 / Villeneuve d'Ascq Cedex / FRANCE 2024-02-19 16:59:55
 SCM User ID: u10325
  
 AMS 2023.104  RunTime: Jun21-2024 13:55:00  ShM Nodes: 4  Procs: 16

 AMS jobname: pacl7.SR.pbe0.tz2p.opt-freq
 AMS jobid  : 311923496

 Start   directory: /home/shaaban/ams/PhD/geometries-exafs/pacl7/PBE0/
 Results directory: /home/shaaban/ams/PhD/geometries-exafs/pacl7/PBE0/pacl7.SR.pbe0.tz2p.opt-freq.results/
 Scratch directory: /state/partition2/shaaban/1021099.phlam-s-sakura/amstmp_pacl7.SR.pbe0.tz2p.opt-freq_kid0.311923496/


 Communication costs MPI_COMM_WORLD:     -1.417 usec per message,   0.0446 usec per 8-byte item
 Communication costs for intra-node:      0.104 usec per message,   0.0088 usec per 8-byte item

 RNG seed: 1275123847 -1888850957 -463751440 -1355660444 -1858013752 1207188113 107283885 -160471639



                     *************************************************************************
                     *  ADF 2023.104  RunTime: Jun21-2024 13:55:01  ShM Nodes: 4  Procs: 16  *
                     *************************************************************************
  

       ***************************
       *  GEOMETRY OPTIMIZATION  *
       ***************************

Optimization Method                    Quasi Newton
Optimization Coordinates               Delocalized Coordinates
Optimize lattice                       F
 
 ------------------------------------------------------
 Convergence criteria (Hartree,Angstrom)
 ------------------------------------------------------
 Maximum gradient               0.000100000000
 Maximum rms gradient           0.000066666667
 Maximum step allowed           0.001000000000
 Maximum rms step allowed       0.000666666667
 Maximum energy change allowe   0.000008000000
 Maximum stress energy allowe   0.000500000000
 
Initial model Hessian                  Automatic Hessian
 
------------------------------------
Quasi-Newton Optimizer Parameters
------------------------------------
Hessian Update Method                  BFGS
Maximum number of steps                  250
First GDIIS cycle                          0
Maximum GDIIS vectors                      0
Trust radius (bohr)                        0.200000
Trust radius varies                        T
Constraints converged at all steps         T
Use projector                              T
 
 Rigid motions settings for: old optimizer
 Atomic rotations (x,y,z):     T T T
 Atomic translations (x,y,z):  T T T
 Tolerance:                   1.000000000000000E-006
 
--------
Geometry
--------
Formula: Cl7Pa
Atoms
  Index Symbol   x (angstrom)   y (angstrom)   z (angstrom)
      1     Pa    -1.14307998    -0.08820284     0.24340322       adf.R=2.200
      2     Cl     1.12705355    -0.63598011    -1.12196840       adf.R=1.725
      3     Cl    -1.45861431    -2.54711116    -0.85481170       adf.R=1.725
      4     Cl    -2.01368874    -1.59592312     2.23794887       adf.R=1.725
      5     Cl    -3.43059371     0.09196673    -1.06706928       adf.R=1.725
      6     Cl    -2.42593858     1.71533844     1.75734875       adf.R=1.725
      7     Cl     0.75648606     0.44572399     1.99814578       adf.R=1.725
      8     Cl    -0.65941098     2.14339469    -1.10759486       adf.R=1.725
 
Total System Charge            -2.00000
Bonding info available!
 
 
----------------
ADF Engine Input
----------------
 
 Basis
 Type TZ2P
 Core None
 End
 XC
 Hybrid PBE0
 End
 Solvation
 Surf Delley
 Solv name=Water cav0=0.0 cav1=0.0067639
 Charged method=CONJ
 C-Mat POT
 SCF VAR ALL
 CSMRSP
 End
 NumericalQuality Good
 

 Title: *** (NO TITLE) ***

 Using automatic Hessian for delocalized coordinates.
 *** GO1_GOStep1 ***

 SOLVATION
-------------------------------------------

  The Delley construction of COSMO surface surface is calculated

       Division Level for Surface Triangles (NDIV)                  3
       Final Division Level for Triangles (NFDIV)                   1
       Radius of the Solvent (RSOL)                           1.93000 angstr
  Dielectric Constant (EPSL)                                 78.39000

       COSMO equation is solved iteratively-               conjugate-gradient

       Maximun of Iterations for Charges (NCIX)                  1000
       Criterion for Charge convergence (CCNV)                1.0E-08

  COSMO charges included variationally in SCF

       COSMO included at every SCF cycle

  Geometry-dependent empirical factor                         0.00000

  C-Matrix calculated in cspmtx

  In cspmtx, C-Matrix calculated using fitted potential

-------------------------------------------



 -------------------------------------------
  COSMO surface
  Area             =          655.855
  Volume           =         1220.627
  Number of Points =         1430
 -------------------------------------------



 ======================
 RI Hartree-Fock Scheme
 ======================
  
 Fit Set Quality     : GOOD
 Threshold Quality   : GOOD
 Integration Quality : GOOD
 Fit Generation Method : AUTO
 Response Quality    : DEFAULT
 Is Range Separated  :  F
 
 RIHartreeFock Dependency: number of modified vectors:           7
 cosmo_calcen: 0.5 (esolb+esolc) (Hartrees) =   -0.256736

 Solvation energy (screening term,uncorrected) =   -161.104155 kcal/mol

 Solvation energy (dispersion and cavitation terms) =      1.226397 kcal/mol
 Solvation Energy Contributions (Hartrees)
          esola   esolb+esolc
     0.25673579   -0.51347157
 esol last cycle   -0.25673579
  
 Hartree-Fock exchange energy:   -660.474023919564     
 cosmo_calcen: 0.5 (esolb+esolc) (Hartrees) =   -0.256736

 Solvation energy (screening term,uncorrected) =   -161.104153 kcal/mol

 Solvation energy (dispersion and cavitation terms) =      1.226397 kcal/mol
 Solvation Energy Contributions (Hartrees)
          esola   esolb+esolc
     0.25673578   -0.51347157
 esol last cycle   -0.25673578

 Energy gradients wrt nuclear displacements
 ==========================================

     Atom      Cartesian (a.u./angstrom)
                 X         Y         Z
 ----------------------------------------
     1 Pa    0.004242 -0.003994 -0.004936
     2 Cl    0.013277 -0.003130 -0.007659
     3 Cl   -0.002471 -0.014005 -0.005511
     4 Cl   -0.005705 -0.009340  0.012836
     5 Cl   -0.014841  0.001260 -0.008102
     6 Cl   -0.008647  0.011375  0.009984
     7 Cl    0.011723  0.003298  0.011716
     8 Cl    0.002423  0.014538 -0.008328
 ----------------------------------------
 Mulliken charges used for AMS results%charges...
 Residual max backtransformation error   0.1320E+00

 Delocalized step failed. Taking Cartesian step

 
----------------------------------------------------------------------
Geometry Convergence after Step   1       (Hartree/Angstrom,Angstrom)
----------------------------------------------------------------------
current energy                               -2.05224931 Hartree
energy change                      -2.05224931     0.00000800    F
constrained gradient max            0.01484979     0.00010000    F
constrained gradient rms            0.00909132     0.00006667    F
gradient max                        0.01484979
gradient rms                        0.00909132
cart. step max                      0.20837243     0.00100000    F
cart. step rms                      0.09779495     0.00066667    F
 
 
--------
Geometry
--------
Formula: Cl7Pa
Atoms
  Index Symbol   x (angstrom)   y (angstrom)   z (angstrom)
      1     Pa    -1.19126136    -0.08622836     0.29070915       adf.R=2.200
      2     Cl     0.91868112    -0.60941077    -1.03838801       adf.R=1.725
      3     Cl    -1.36517955    -2.36827813    -0.85203490       adf.R=1.725
      4     Cl    -1.97131196    -1.53203598     2.15084222       adf.R=1.725
      5     Cl    -3.31353610     0.06483309    -0.97587271       adf.R=1.725
      6     Cl    -2.37047685     1.65544164     1.65671895       adf.R=1.725
      7     Cl     0.65661590     0.44399631     1.84950405       adf.R=1.725
      8     Cl    -0.61131788     1.96088882    -0.99607637       adf.R=1.725
 
Total System Charge            -2.00000
Bonding info available!
 
 *** GO1_GOStep2 ***

 SOLVATION
-------------------------------------------

  The Delley construction of COSMO surface surface is calculated

       Division Level for Surface Triangles (NDIV)                  3
       Final Division Level for Triangles (NFDIV)                   1
       Radius of the Solvent (RSOL)                           1.93000 angstr
  Dielectric Constant (EPSL)                                 78.39000

       COSMO equation is solved iteratively-               conjugate-gradient

       Maximun of Iterations for Charges (NCIX)                  1000
       Criterion for Charge convergence (CCNV)                1.0E-08

  COSMO charges included variationally in SCF

       COSMO included at every SCF cycle

  Geometry-dependent empirical factor                         0.00000

  C-Matrix calculated in cspmtx

  In cspmtx, C-Matrix calculated using fitted potential

-------------------------------------------



 -------------------------------------------
  COSMO surface
  Area             =          615.517
  Volume           =         1144.386
  Number of Points =         1363
 -------------------------------------------



 ======================
 RI Hartree-Fock Scheme
 ======================
  
 Fit Set Quality     : GOOD
 Threshold Quality   : GOOD
 Integration Quality : GOOD
 Fit Generation Method : AUTO
 Response Quality    : DEFAULT
 Is Range Separated  :  F
 
 RIHartreeFock Dependency: number of modified vectors:           7
 cosmo_calcen: 0.5 (esolb+esolc) (Hartrees) =   -0.262884

 Solvation energy (screening term,uncorrected) =   -164.962435 kcal/mol

 Solvation energy (dispersion and cavitation terms) =      1.150969 kcal/mol
 Solvation Energy Contributions (Hartrees)
          esola   esolb+esolc
     0.26288435   -0.52576869
 esol last cycle   -0.26288435
  
 Hartree-Fock exchange energy:   -660.768069943794     
 cosmo_calcen: 0.5 (esolb+esolc) (Hartrees) =   -0.262884

 Solvation energy (screening term,uncorrected) =   -164.962438 kcal/mol

 Solvation energy (dispersion and cavitation terms) =      1.150969 kcal/mol
 Solvation Energy Contributions (Hartrees)
          esola   esolb+esolc
     0.26288435   -0.52576870
 esol last cycle   -0.26288435

 Energy gradients wrt nuclear displacements
 ==========================================

     Atom      Cartesian (a.u./angstrom)
                 X         Y         Z
 ----------------------------------------
     1 Pa   -0.010368  0.016400  0.014502
     2 Cl   -0.069638  0.012341  0.034785
     3 Cl    0.020999  0.063478  0.019414
     4 Cl    0.021919  0.040685 -0.051579
     5 Cl    0.063578 -0.006085  0.037578
     6 Cl    0.032257 -0.044072 -0.039654
     7 Cl   -0.052342 -0.014267 -0.054146
     8 Cl   -0.006406 -0.068480  0.039100
 ----------------------------------------
 Mulliken charges used for AMS results%charges...

 dE(predicted):    -0.56112E-03, dE(actual):     0.30588E-01, Trust radius:    0.150000, all in a.u.
 
----------------------------------------------------------------------
Geometry Convergence after Step   2       (Hartree/Angstrom,Angstrom)
----------------------------------------------------------------------
current energy                               -2.02166178 Hartree
energy change                       0.03058753     0.00000800    F
constrained gradient max            0.06965951     0.00010000    F
constrained gradient rms            0.04011590     0.00006667    F
gradient max                        0.06965951
gradient rms                        0.04011590
cart. step max                      0.04058281     0.00100000    F
cart. step rms                      0.02101091     0.00066667    F
 
 
--------
Geometry
--------
Formula: Cl7Pa
Atoms
  Index Symbol   x (angstrom)   y (angstrom)   z (angstrom)
      1     Pa    -1.18381447    -0.08555153     0.28172667       adf.R=2.200
      2     Cl     0.95926393    -0.61782089    -1.04250129       adf.R=1.725
      3     Cl    -1.40008204    -2.40129282    -0.83821947       adf.R=1.725
      4     Cl    -1.96869594    -1.54728685     2.15959035       adf.R=1.725
      5     Cl    -3.31677001     0.07495603    -1.01551000       adf.R=1.725
      6     Cl    -2.36690385     1.65919257     1.68394224       adf.R=1.725
      7     Cl     0.67175071     0.44878537     1.87137323       adf.R=1.725
      8     Cl    -0.64253500     1.99822474    -1.01499937       adf.R=1.725
 
Total System Charge            -2.00000
Bonding info available!
 
 *** GO1_GOStep3 ***

 SOLVATION
-------------------------------------------

  The Delley construction of COSMO surface surface is calculated

       Division Level for Surface Triangles (NDIV)                  3
       Final Division Level for Triangles (NFDIV)                   1
       Radius of the Solvent (RSOL)                           1.93000 angstr
  Dielectric Constant (EPSL)                                 78.39000

       COSMO equation is solved iteratively-               conjugate-gradient

       Maximun of Iterations for Charges (NCIX)                  1000
       Criterion for Charge convergence (CCNV)                1.0E-08

  COSMO charges included variationally in SCF

       COSMO included at every SCF cycle

  Geometry-dependent empirical factor                         0.00000

  C-Matrix calculated in cspmtx

  In cspmtx, C-Matrix calculated using fitted potential

-------------------------------------------



 -------------------------------------------
  COSMO surface
  Area             =          623.380
  Volume           =         1159.741
  Number of Points =         1381
 -------------------------------------------



 ======================
 RI Hartree-Fock Scheme
 ======================
  
 Fit Set Quality     : GOOD
 Threshold Quality   : GOOD
 Integration Quality : GOOD
 Fit Generation Method : AUTO
 Response Quality    : DEFAULT
 Is Range Separated  :  F
 
 RIHartreeFock Dependency: number of modified vectors:           7
 cosmo_calcen: 0.5 (esolb+esolc) (Hartrees) =   -0.261762

 Solvation energy (screening term,uncorrected) =   -164.258134 kcal/mol

 Solvation energy (dispersion and cavitation terms) =      1.165672 kcal/mol
 Solvation Energy Contributions (Hartrees)
          esola   esolb+esolc
     0.26176197   -0.52352394
 esol last cycle   -0.26176197
  
 Hartree-Fock exchange energy:   -660.717030688964     
 cosmo_calcen: 0.5 (esolb+esolc) (Hartrees) =   -0.261762

 Solvation energy (screening term,uncorrected) =   -164.258125 kcal/mol

 Solvation energy (dispersion and cavitation terms) =      1.165672 kcal/mol
 Solvation Energy Contributions (Hartrees)
          esola   esolb+esolc
     0.26176196   -0.52352391
 esol last cycle   -0.26176196

 Energy gradients wrt nuclear displacements
 ==========================================

     Atom      Cartesian (a.u./angstrom)
                 X         Y         Z
 ----------------------------------------
     1 Pa   -0.010138  0.012029  0.012747
     2 Cl   -0.049274  0.009267  0.026321
     3 Cl    0.013618  0.047602  0.015777
     4 Cl    0.017086  0.030605 -0.040619
     5 Cl    0.049171 -0.005299  0.027606
     6 Cl    0.026109 -0.032887 -0.030034
     7 Cl   -0.039924 -0.010835 -0.041585
     8 Cl   -0.006648 -0.050482  0.029787
 ----------------------------------------
 Mulliken charges used for AMS results%charges...

 dE(predicted):    -0.11521E-01, dE(actual):    -0.12981E-01, Trust radius:    0.300000, all in a.u.
 
----------------------------------------------------------------------
Geometry Convergence after Step   3       (Hartree/Angstrom,Angstrom)
----------------------------------------------------------------------
current energy                               -2.03464312 Hartree
energy change                      -0.01298135     0.00000800    F
constrained gradient max            0.05047960     0.00010000    F
constrained gradient rms            0.03026900     0.00006667    F
gradient max                        0.05047960
gradient rms                        0.03026900
cart. step max                      0.06558903     0.00100000    F
cart. step rms                      0.03453402     0.00066667    F
 
 
--------
Geometry
--------
Formula: Cl7Pa
Atoms
  Index Symbol   x (angstrom)   y (angstrom)   z (angstrom)
      1     Pa    -1.18524878    -0.08945523     0.27209399       adf.R=2.200
      2     Cl     1.01188456    -0.62025737    -1.08079555       adf.R=1.725
      3     Cl    -1.40504861    -2.46688185    -0.84415083       adf.R=1.725
      4     Cl    -1.98525032    -1.57685525     2.19972632       adf.R=1.725
      5     Cl    -3.38207684     0.10296679    -1.03100578       adf.R=1.725
      6     Cl    -2.41778309     1.66748111     1.71618280       adf.R=1.725
      7     Cl     0.71161793     0.47088548     1.90185437       adf.R=1.725
      8     Cl    -0.59588153     2.04132292    -1.04850295       adf.R=1.725
 
Total System Charge            -2.00000
Bonding info available!
 
 *** GO1_GOStep4 ***

 SOLVATION
-------------------------------------------

  The Delley construction of COSMO surface surface is calculated

       Division Level for Surface Triangles (NDIV)                  3
       Final Division Level for Triangles (NFDIV)                   1
       Radius of the Solvent (RSOL)                           1.93000 angstr
  Dielectric Constant (EPSL)                                 78.39000

       COSMO equation is solved iteratively-               conjugate-gradient

       Maximun of Iterations for Charges (NCIX)                  1000
       Criterion for Charge convergence (CCNV)                1.0E-08

  COSMO charges included variationally in SCF

       COSMO included at every SCF cycle

  Geometry-dependent empirical factor                         0.00000

  C-Matrix calculated in cspmtx

  In cspmtx, C-Matrix calculated using fitted potential

-------------------------------------------



 -------------------------------------------
  COSMO surface
  Area             =          636.736
  Volume           =         1184.476
  Number of Points =         1394
 -------------------------------------------



 ======================
 RI Hartree-Fock Scheme
 ======================
  
 Fit Set Quality     : GOOD
 Threshold Quality   : GOOD
 Integration Quality : GOOD
 Fit Generation Method : AUTO
 Response Quality    : DEFAULT
 Is Range Separated  :  F
 
 RIHartreeFock Dependency: number of modified vectors:           7
 cosmo_calcen: 0.5 (esolb+esolc) (Hartrees) =   -0.259584

 Solvation energy (screening term,uncorrected) =   -162.891711 kcal/mol

 Solvation energy (dispersion and cavitation terms) =      1.190648 kcal/mol
 Solvation Energy Contributions (Hartrees)
          esola   esolb+esolc
     0.25958444   -0.51916888
 esol last cycle   -0.25958444
  
 Hartree-Fock exchange energy:   -660.608909666713     
 cosmo_calcen: 0.5 (esolb+esolc) (Hartrees) =   -0.259584

 Solvation energy (screening term,uncorrected) =   -162.891714 kcal/mol

 Solvation energy (dispersion and cavitation terms) =      1.190648 kcal/mol
 Solvation Energy Contributions (Hartrees)
          esola   esolb+esolc
     0.25958444   -0.51916888
 esol last cycle   -0.25958444

 Energy gradients wrt nuclear displacements
 ==========================================

     Atom      Cartesian (a.u./angstrom)
                 X         Y         Z
 ----------------------------------------
     1 Pa   -0.009592  0.002930  0.007827
     2 Cl   -0.021428  0.006238  0.010279
     3 Cl    0.009599  0.017448  0.004754
     4 Cl    0.005782  0.011131 -0.014932
     5 Cl    0.016163 -0.000460  0.010764
     6 Cl    0.008729 -0.012629 -0.011053
     7 Cl   -0.012712 -0.003092 -0.017492
     8 Cl    0.003459 -0.021564  0.009854
 ----------------------------------------
 Mulliken charges used for AMS results%charges...

 dE(predicted):    -0.16081E-01, dE(actual):    -0.15429E-01, Trust radius:    0.600000, all in a.u.
 
----------------------------------------------------------------------
Geometry Convergence after Step   4       (Hartree/Angstrom,Angstrom)
----------------------------------------------------------------------
current energy                               -2.05007215 Hartree
energy change                      -0.01542902     0.00000800    F
constrained gradient max            0.02156721     0.00010000    F
constrained gradient rms            0.01181703     0.00006667    F
gradient max                        0.02156721
gradient rms                        0.01181703
cart. step max                      0.21089736     0.00100000    F
cart. step rms                      0.06887778     0.00066667    F
 
 
--------
Geometry
--------
Formula: Cl7Pa
Atoms
  Index Symbol   x (angstrom)   y (angstrom)   z (angstrom)
      1     Pa    -1.13455197    -0.08535161     0.26976757       adf.R=2.200
      2     Cl     1.07558753    -0.67431435    -1.08640399       adf.R=1.725
      3     Cl    -1.51378646    -2.48127003    -0.82050092       adf.R=1.725
      4     Cl    -1.94696713    -1.58464983     2.21819163       adf.R=1.725
      5     Cl    -3.28355333     0.11195164    -1.15735223       adf.R=1.725
      6     Cl    -2.36480427     1.68439482     1.74672001       adf.R=1.725
      7     Cl     0.72706784     0.44165915     1.99122252       adf.R=1.725
      8     Cl    -0.80677889     2.11678683    -1.07624222       adf.R=1.725
 
Total System Charge            -2.00000
Bonding info available!
 
 *** GO1_GOStep5 ***

 SOLVATION
-------------------------------------------

  The Delley construction of COSMO surface surface is calculated

       Division Level for Surface Triangles (NDIV)                  3
       Final Division Level for Triangles (NFDIV)                   1
       Radius of the Solvent (RSOL)                           1.93000 angstr
  Dielectric Constant (EPSL)                                 78.39000

       COSMO equation is solved iteratively-               conjugate-gradient

       Maximun of Iterations for Charges (NCIX)                  1000
       Criterion for Charge convergence (CCNV)                1.0E-08

  COSMO charges included variationally in SCF

       COSMO included at every SCF cycle

  Geometry-dependent empirical factor                         0.00000

  C-Matrix calculated in cspmtx

  In cspmtx, C-Matrix calculated using fitted potential

-------------------------------------------



 -------------------------------------------
  COSMO surface
  Area             =          643.662
  Volume           =         1196.251
  Number of Points =         1417
 -------------------------------------------



 ======================
 RI Hartree-Fock Scheme
 ======================
  
 Fit Set Quality     : GOOD
 Threshold Quality   : GOOD
 Integration Quality : GOOD
 Fit Generation Method : AUTO
 Response Quality    : DEFAULT
 Is Range Separated  :  F
 
 RIHartreeFock Dependency: number of modified vectors:           7
 cosmo_calcen: 0.5 (esolb+esolc) (Hartrees) =   -0.257994

 Solvation energy (screening term,uncorrected) =   -161.893923 kcal/mol

 Solvation energy (dispersion and cavitation terms) =      1.203598 kcal/mol
 Solvation Energy Contributions (Hartrees)
          esola   esolb+esolc
     0.25799436   -0.51598872
 esol last cycle   -0.25799436
  
 Hartree-Fock exchange energy:   -660.564819595805     
 cosmo_calcen: 0.5 (esolb+esolc) (Hartrees) =   -0.257994

 Solvation energy (screening term,uncorrected) =   -161.893923 kcal/mol

 Solvation energy (dispersion and cavitation terms) =      1.203598 kcal/mol
 Solvation Energy Contributions (Hartrees)
          esola   esolb+esolc
     0.25799436   -0.51598872
 esol last cycle   -0.25799436

 Energy gradients wrt nuclear displacements
 ==========================================

     Atom      Cartesian (a.u./angstrom)
                 X         Y         Z
 ----------------------------------------
     1 Pa    0.001256  0.001049  0.005619
     2 Cl   -0.000915 -0.005307  0.000752
     3 Cl   -0.002735  0.009100  0.002593
     4 Cl    0.003713  0.003552 -0.007031
     5 Cl    0.015435  0.000695 -0.000097
     6 Cl    0.007751 -0.001746 -0.005057
     7 Cl   -0.007508 -0.001846 -0.001619
     8 Cl   -0.016997 -0.005497  0.004840
 ----------------------------------------
 Mulliken charges used for AMS results%charges...

 dE(predicted):    -0.74183E-02, dE(actual):    -0.13236E-02, Trust radius:    0.600000, all in a.u.
 
----------------------------------------------------------------------
Geometry Convergence after Step   5       (Hartree/Angstrom,Angstrom)
----------------------------------------------------------------------
current energy                               -2.05139579 Hartree
energy change                      -0.00132364     0.00000800    F
constrained gradient max            0.01699119     0.00010000    F
constrained gradient rms            0.00635419     0.00006667    F
gradient max                        0.01699119
gradient rms                        0.00635419
cart. step max                      0.17699094     0.00100000    F
cart. step rms                      0.05198049     0.00066667    F
 
 
--------
Geometry
--------
Formula: Cl7Pa
Atoms
  Index Symbol   x (angstrom)   y (angstrom)   z (angstrom)
      1     Pa    -1.16159928    -0.08469401     0.25142660       adf.R=2.200
      2     Cl     1.08737429    -0.64352373    -1.10814260       adf.R=1.725
      3     Cl    -1.47366207    -2.51714319    -0.83886143       adf.R=1.725
      4     Cl    -1.97136577    -1.58848648     2.22983932       adf.R=1.725
      5     Cl    -3.40324071     0.09271581    -1.08181983       adf.R=1.725
      6     Cl    -2.43418446     1.67833553     1.74156768       adf.R=1.725
      7     Cl     0.73867928     0.46670590     1.96324127       adf.R=1.725
      8     Cl    -0.62978795     2.12529679    -1.07184864       adf.R=1.725
 
Total System Charge            -2.00000
Bonding info available!
 
 *** GO1_GOStep6 ***

 SOLVATION
-------------------------------------------

  The Delley construction of COSMO surface surface is calculated

       Division Level for Surface Triangles (NDIV)                  3
       Final Division Level for Triangles (NFDIV)                   1
       Radius of the Solvent (RSOL)                           1.93000 angstr
  Dielectric Constant (EPSL)                                 78.39000

       COSMO equation is solved iteratively-               conjugate-gradient

       Maximun of Iterations for Charges (NCIX)                  1000
       Criterion for Charge convergence (CCNV)                1.0E-08

  COSMO charges included variationally in SCF

       COSMO included at every SCF cycle

  Geometry-dependent empirical factor                         0.00000

  C-Matrix calculated in cspmtx

  In cspmtx, C-Matrix calculated using fitted potential

-------------------------------------------



 -------------------------------------------
  COSMO surface
  Area             =          650.197
  Volume           =         1209.122
  Number of Points =         1415
 -------------------------------------------



 ======================
 RI Hartree-Fock Scheme
 ======================
  
 Fit Set Quality     : GOOD
 Threshold Quality   : GOOD
 Integration Quality : GOOD
 Fit Generation Method : AUTO
 Response Quality    : DEFAULT
 Is Range Separated  :  F
 
 RIHartreeFock Dependency: number of modified vectors:           7
 cosmo_calcen: 0.5 (esolb+esolc) (Hartrees) =   -0.257550

 Solvation energy (screening term,uncorrected) =   -161.615252 kcal/mol

 Solvation energy (dispersion and cavitation terms) =      1.215819 kcal/mol
 Solvation Energy Contributions (Hartrees)
          esola   esolb+esolc
     0.25755027   -0.51510054
 esol last cycle   -0.25755027
  
 Hartree-Fock exchange energy:   -660.520099462767     
 cosmo_calcen: 0.5 (esolb+esolc) (Hartrees) =   -0.257550

 Solvation energy (screening term,uncorrected) =   -161.615253 kcal/mol

 Solvation energy (dispersion and cavitation terms) =      1.215819 kcal/mol
 Solvation Energy Contributions (Hartrees)
          esola   esolb+esolc
     0.25755027   -0.51510054
 esol last cycle   -0.25755027

 Energy gradients wrt nuclear displacements
 ==========================================

     Atom      Cartesian (a.u./angstrom)
                 X         Y         Z
 ----------------------------------------
     1 Pa   -0.003300 -0.001363  0.000417
     2 Cl    0.004720 -0.000505 -0.002544
     3 Cl   -0.000651 -0.003396 -0.001323
     4 Cl   -0.001095 -0.002125  0.002793
     5 Cl   -0.004527 -0.001056 -0.002665
     6 Cl   -0.001675  0.002535  0.002974
     7 Cl    0.003752  0.001166  0.003032
     8 Cl    0.002777  0.004745 -0.002684
 ----------------------------------------
 Mulliken charges used for AMS results%charges...

 dE(predicted):    -0.32968E-02, dE(actual):    -0.27164E-02, Trust radius:    0.600000, all in a.u.
 
----------------------------------------------------------------------
Geometry Convergence after Step   6       (Hartree/Angstrom,Angstrom)
----------------------------------------------------------------------
current energy                               -2.05411221 Hartree
energy change                      -0.00271642     0.00000800    F
constrained gradient max            0.00474339     0.00010000    F
constrained gradient rms            0.00272318     0.00006667    F
gradient max                        0.00474339
gradient rms                        0.00272318
cart. step max                      0.01609785     0.00100000    F
cart. step rms                      0.00688299     0.00066667    F
 
 
--------
Geometry
--------
Formula: Cl7Pa
Atoms
  Index Symbol   x (angstrom)   y (angstrom)   z (angstrom)
      1     Pa    -1.15901726    -0.08612975     0.25495368       adf.R=2.200
      2     Cl     1.07854822    -0.64206823    -1.10326815       adf.R=1.725
      3     Cl    -1.46906944    -2.50908063    -0.83541120       adf.R=1.725
      4     Cl    -1.96999585    -1.58508181     2.22449614       adf.R=1.725
      5     Cl    -3.38800546     0.10135978    -1.07846195       adf.R=1.725
      6     Cl    -2.42877268     1.67510216     1.73349935       adf.R=1.725
      7     Cl     0.73441159     0.46105246     1.95991947       adf.R=1.725
      8     Cl    -0.64588580     2.11405264    -1.07032496       adf.R=1.725
 
Total System Charge            -2.00000
Bonding info available!
 
 *** GO1_GOStep7 ***

 SOLVATION
-------------------------------------------

  The Delley construction of COSMO surface surface is calculated

       Division Level for Surface Triangles (NDIV)                  3
       Final Division Level for Triangles (NFDIV)                   1
       Radius of the Solvent (RSOL)                           1.93000 angstr
  Dielectric Constant (EPSL)                                 78.39000

       COSMO equation is solved iteratively-               conjugate-gradient

       Maximun of Iterations for Charges (NCIX)                  1000
       Criterion for Charge convergence (CCNV)                1.0E-08

  COSMO charges included variationally in SCF

       COSMO included at every SCF cycle

  Geometry-dependent empirical factor                         0.00000

  C-Matrix calculated in cspmtx

  In cspmtx, C-Matrix calculated using fitted potential

-------------------------------------------



 -------------------------------------------
  COSMO surface
  Area             =          648.153
  Volume           =         1205.080
  Number of Points =         1413
 -------------------------------------------



 ======================
 RI Hartree-Fock Scheme
 ======================
  
 Fit Set Quality     : GOOD
 Threshold Quality   : GOOD
 Integration Quality : GOOD
 Fit Generation Method : AUTO
 Response Quality    : DEFAULT
 Is Range Separated  :  F
 
 RIHartreeFock Dependency: number of modified vectors:           7
 cosmo_calcen: 0.5 (esolb+esolc) (Hartrees) =   -0.257871

 Solvation energy (screening term,uncorrected) =   -161.816289 kcal/mol

 Solvation energy (dispersion and cavitation terms) =      1.211997 kcal/mol
 Solvation Energy Contributions (Hartrees)
          esola   esolb+esolc
     0.25787064   -0.51574129
 esol last cycle   -0.25787064
  
 Hartree-Fock exchange energy:   -660.536368397138     
 cosmo_calcen: 0.5 (esolb+esolc) (Hartrees) =   -0.257871

 Solvation energy (screening term,uncorrected) =   -161.816291 kcal/mol

 Solvation energy (dispersion and cavitation terms) =      1.211997 kcal/mol
 Solvation Energy Contributions (Hartrees)
          esola   esolb+esolc
     0.25787065   -0.51574129
 esol last cycle   -0.25787065

 Energy gradients wrt nuclear displacements
 ==========================================

     Atom      Cartesian (a.u./angstrom)
                 X         Y         Z
 ----------------------------------------
     1 Pa   -0.002928 -0.000623  0.001747
     2 Cl    0.001217 -0.000168 -0.000634
     3 Cl    0.000253 -0.000012  0.000058
     4 Cl    0.000259  0.000211 -0.000490
     5 Cl   -0.000147 -0.000247 -0.000305
     6 Cl    0.000215 -0.000024 -0.000125
     7 Cl    0.000589  0.000094  0.000122
     8 Cl    0.000540  0.000769 -0.000374
 ----------------------------------------
 Mulliken charges used for AMS results%charges...

 dE(predicted):    -0.19060E-03, dE(actual):    -0.18320E-03, Trust radius:    0.600000, all in a.u.
 
----------------------------------------------------------------------
Geometry Convergence after Step   7       (Hartree/Angstrom,Angstrom)
----------------------------------------------------------------------
current energy                               -2.05429542 Hartree
energy change                      -0.00018320     0.00000800    F
constrained gradient max            0.00292801     0.00010000    F
constrained gradient rms            0.00081553     0.00006667    F
gradient max                        0.00292801
gradient rms                        0.00081553
cart. step max                      0.00369174     0.00100000    F
cart. step rms                      0.00128880     0.00066667    F
 
 
--------
Geometry
--------
Formula: Cl7Pa
Atoms
  Index Symbol   x (angstrom)   y (angstrom)   z (angstrom)
      1     Pa    -1.15718027    -0.08634613     0.25488256       adf.R=2.200
      2     Cl     1.07855020    -0.64214866    -1.10316018       adf.R=1.725
      3     Cl    -1.47003368    -2.50829521    -0.83554734       adf.R=1.725
      4     Cl    -1.96955177    -1.58407394     2.22445706       adf.R=1.725
      5     Cl    -3.38535602     0.10307898    -1.07811653       adf.R=1.725
      6     Cl    -2.42807689     1.67376597     1.73297537       adf.R=1.725
      7     Cl     0.73343929     0.46038443     1.96157174       adf.R=1.725
      8     Cl    -0.64957754     2.11284119    -1.07166030       adf.R=1.725
 
Total System Charge            -2.00000
Bonding info available!
 
 *** GO1_GOStep8 ***

 SOLVATION
-------------------------------------------

  The Delley construction of COSMO surface surface is calculated

       Division Level for Surface Triangles (NDIV)                  3
       Final Division Level for Triangles (NFDIV)                   1
       Radius of the Solvent (RSOL)                           1.93000 angstr
  Dielectric Constant (EPSL)                                 78.39000

       COSMO equation is solved iteratively-               conjugate-gradient

       Maximun of Iterations for Charges (NCIX)                  1000
       Criterion for Charge convergence (CCNV)                1.0E-08

  COSMO charges included variationally in SCF

       COSMO included at every SCF cycle

  Geometry-dependent empirical factor                         0.00000

  C-Matrix calculated in cspmtx

  In cspmtx, C-Matrix calculated using fitted potential

-------------------------------------------



 -------------------------------------------
  COSMO surface
  Area             =          647.922
  Volume           =         1204.680
  Number of Points =         1413
 -------------------------------------------



 ======================
 RI Hartree-Fock Scheme
 ======================
  
 Fit Set Quality     : GOOD
 Threshold Quality   : GOOD
 Integration Quality : GOOD
 Fit Generation Method : AUTO
 Response Quality    : DEFAULT
 Is Range Separated  :  F
 
 RIHartreeFock Dependency: number of modified vectors:           7
 cosmo_calcen: 0.5 (esolb+esolc) (Hartrees) =   -0.257892

 Solvation energy (screening term,uncorrected) =   -161.829939 kcal/mol

 Solvation energy (dispersion and cavitation terms) =      1.211563 kcal/mol
 Solvation Energy Contributions (Hartrees)
          esola   esolb+esolc
     0.25789240   -0.51578479
 esol last cycle   -0.25789240
  
 Hartree-Fock exchange energy:   -660.537768289671     
 cosmo_calcen: 0.5 (esolb+esolc) (Hartrees) =   -0.257892

 Solvation energy (screening term,uncorrected) =   -161.829939 kcal/mol

 Solvation energy (dispersion and cavitation terms) =      1.211563 kcal/mol
 Solvation Energy Contributions (Hartrees)
          esola   esolb+esolc
     0.25789240   -0.51578479
 esol last cycle   -0.25789240

 Energy gradients wrt nuclear displacements
 ==========================================

     Atom      Cartesian (a.u./angstrom)
                 X         Y         Z
 ----------------------------------------
     1 Pa   -0.002425 -0.000496  0.001665
     2 Cl    0.000928 -0.000185 -0.000548
     3 Cl    0.000196  0.000241  0.000141
     4 Cl    0.000340  0.000496 -0.000652
     5 Cl    0.000346 -0.000097 -0.000071
     6 Cl    0.000345 -0.000335 -0.000375
     7 Cl    0.000175 -0.000021  0.000041
     8 Cl    0.000095  0.000397 -0.000200
 ----------------------------------------
 Mulliken charges used for AMS results%charges...

 dE(predicted):    -0.44313E-05, dE(actual):    -0.16306E-04, Trust radius:    0.600000, all in a.u.
 
----------------------------------------------------------------------
Geometry Convergence after Step   8       (Hartree/Angstrom,Angstrom)
----------------------------------------------------------------------
current energy                               -2.05431172 Hartree
energy change                      -0.00001631     0.00000800    F
constrained gradient max            0.00242545     0.00010000    F
constrained gradient rms            0.00069911     0.00006667    F
gradient max                        0.00242545
gradient rms                        0.00069911
cart. step max                      0.00176179     0.00100000    F
cart. step rms                      0.00085151     0.00066667    F
 
 
--------
Geometry
--------
Formula: Cl7Pa
Atoms
  Index Symbol   x (angstrom)   y (angstrom)   z (angstrom)
      1     Pa    -1.15541848    -0.08641405     0.25440383       adf.R=2.200
      2     Cl     1.07905109    -0.64229199    -1.10265866       adf.R=1.725
      3     Cl    -1.47091447    -2.50791396    -0.83645270       adf.R=1.725
      4     Cl    -1.96963377    -1.58397387     2.22424608       adf.R=1.725
      5     Cl    -3.38474701     0.10409772    -1.07643414       adf.R=1.725
      6     Cl    -2.42812636     1.67286577     1.73258158       adf.R=1.725
      7     Cl     0.73284617     0.46092020     1.96278115       adf.R=1.725
      8     Cl    -0.65084385     2.11191679    -1.07306476       adf.R=1.725
 
Total System Charge            -2.00000
Bonding info available!
 
 *** GO1_GOStep9 ***

 SOLVATION
-------------------------------------------

  The Delley construction of COSMO surface surface is calculated

       Division Level for Surface Triangles (NDIV)                  3
       Final Division Level for Triangles (NFDIV)                   1
       Radius of the Solvent (RSOL)                           1.93000 angstr
  Dielectric Constant (EPSL)                                 78.39000

       COSMO equation is solved iteratively-               conjugate-gradient

       Maximun of Iterations for Charges (NCIX)                  1000
       Criterion for Charge convergence (CCNV)                1.0E-08

  COSMO charges included variationally in SCF

       COSMO included at every SCF cycle

  Geometry-dependent empirical factor                         0.00000

  C-Matrix calculated in cspmtx

  In cspmtx, C-Matrix calculated using fitted potential

-------------------------------------------



 -------------------------------------------
  COSMO surface
  Area             =          647.834
  Volume           =         1204.563
  Number of Points =         1413
 -------------------------------------------



 ======================
 RI Hartree-Fock Scheme
 ======================
  
 Fit Set Quality     : GOOD
 Threshold Quality   : GOOD
 Integration Quality : GOOD
 Fit Generation Method : AUTO
 Response Quality    : DEFAULT
 Is Range Separated  :  F
 
 RIHartreeFock Dependency: number of modified vectors:           7
 cosmo_calcen: 0.5 (esolb+esolc) (Hartrees) =   -0.257903

 Solvation energy (screening term,uncorrected) =   -161.836320 kcal/mol

 Solvation energy (dispersion and cavitation terms) =      1.211400 kcal/mol
 Solvation Energy Contributions (Hartrees)
          esola   esolb+esolc
     0.25790257   -0.51580513
 esol last cycle   -0.25790257
  
 Hartree-Fock exchange energy:   -660.538161359263     
 cosmo_calcen: 0.5 (esolb+esolc) (Hartrees) =   -0.257903

 Solvation energy (screening term,uncorrected) =   -161.836323 kcal/mol

 Solvation energy (dispersion and cavitation terms) =      1.211400 kcal/mol
 Solvation Energy Contributions (Hartrees)
          esola   esolb+esolc
     0.25790257   -0.51580514
 esol last cycle   -0.25790257

 Energy gradients wrt nuclear displacements
 ==========================================

     Atom      Cartesian (a.u./angstrom)
                 X         Y         Z
 ----------------------------------------
     1 Pa   -0.001819 -0.000369  0.001385
     2 Cl    0.000749 -0.000150 -0.000504
     3 Cl    0.000116  0.000268  0.000158
     4 Cl    0.000267  0.000530 -0.000575
     5 Cl    0.000487 -0.000002  0.000073
     6 Cl    0.000285 -0.000455 -0.000444
     7 Cl   -0.000002 -0.000048  0.000047
     8 Cl   -0.000083  0.000225 -0.000141
 ----------------------------------------
 Mulliken charges used for AMS results%charges...

 dE(predicted):    -0.23587E-05, dE(actual):    -0.21198E-04, Trust radius:    0.600000, all in a.u.
 
----------------------------------------------------------------------
Geometry Convergence after Step   9       (Hartree/Angstrom,Angstrom)
----------------------------------------------------------------------
current energy                               -2.05433292 Hartree
energy change                      -0.00002120     0.00000800    F
constrained gradient max            0.00181973     0.00010000    F
constrained gradient rms            0.00056967     0.00006667    F
gradient max                        0.00181973
gradient rms                        0.00056967
cart. step max                      0.00341232     0.00100000    F
cart. step rms                      0.00144028     0.00066667    F
 
 
--------
Geometry
--------
Formula: Cl7Pa
Atoms
  Index Symbol   x (angstrom)   y (angstrom)   z (angstrom)
      1     Pa    -1.15289858    -0.08625412     0.25319628       adf.R=2.200
      2     Cl     1.07998973    -0.64313280    -1.10058723       adf.R=1.725
      3     Cl    -1.47214731    -2.50728089    -0.83895866       adf.R=1.725
      4     Cl    -1.96985856    -1.58481474     2.22355053       adf.R=1.725
      5     Cl    -3.38551393     0.10473939    -1.07302182       adf.R=1.725
      6     Cl    -2.42806087     1.67219958     1.73251873       adf.R=1.725
      7     Cl     0.73190059     0.46308068     1.96397530       adf.R=1.725
      8     Cl    -0.65119775     2.11066952    -1.07527074       adf.R=1.725
 
Total System Charge            -2.00000
Bonding info available!
 
 *** GO1_GOStep10 ***

 SOLVATION
-------------------------------------------

  The Delley construction of COSMO surface surface is calculated

       Division Level for Surface Triangles (NDIV)                  3
       Final Division Level for Triangles (NFDIV)                   1
       Radius of the Solvent (RSOL)                           1.93000 angstr
  Dielectric Constant (EPSL)                                 78.39000

       COSMO equation is solved iteratively-               conjugate-gradient

       Maximun of Iterations for Charges (NCIX)                  1000
       Criterion for Charge convergence (CCNV)                1.0E-08

  COSMO charges included variationally in SCF

       COSMO included at every SCF cycle

  Geometry-dependent empirical factor                         0.00000

  C-Matrix calculated in cspmtx

  In cspmtx, C-Matrix calculated using fitted potential

-------------------------------------------



 -------------------------------------------
  COSMO surface
  Area             =          647.845
  Volume           =         1204.642
  Number of Points =         1414
 -------------------------------------------



 ======================
 RI Hartree-Fock Scheme
 ======================
  
 Fit Set Quality     : GOOD
 Threshold Quality   : GOOD
 Integration Quality : GOOD
 Fit Generation Method : AUTO
 Response Quality    : DEFAULT
 Is Range Separated  :  F
 
 RIHartreeFock Dependency: number of modified vectors:           7
 cosmo_calcen: 0.5 (esolb+esolc) (Hartrees) =   -0.257915

 Solvation energy (screening term,uncorrected) =   -161.843920 kcal/mol

 Solvation energy (dispersion and cavitation terms) =      1.211420 kcal/mol
 Solvation Energy Contributions (Hartrees)
          esola   esolb+esolc
     0.25791468   -0.51582935
 esol last cycle   -0.25791468
  
 Hartree-Fock exchange energy:   -660.538200658197     
 cosmo_calcen: 0.5 (esolb+esolc) (Hartrees) =   -0.257915

 Solvation energy (screening term,uncorrected) =   -161.843921 kcal/mol

 Solvation energy (dispersion and cavitation terms) =      1.211420 kcal/mol
 Solvation Energy Contributions (Hartrees)
          esola   esolb+esolc
     0.25791468   -0.51582936
 esol last cycle   -0.25791468

 Energy gradients wrt nuclear displacements
 ==========================================

     Atom      Cartesian (a.u./angstrom)
                 X         Y         Z
 ----------------------------------------
     1 Pa   -0.000760 -0.000120  0.000730
     2 Cl    0.000451 -0.000091 -0.000377
     3 Cl    0.000015  0.000210  0.000139
     4 Cl    0.000050  0.000379 -0.000278
     5 Cl    0.000467  0.000043  0.000201
     6 Cl    0.000117 -0.000470 -0.000384
     7 Cl   -0.000162 -0.000032  0.000045
     8 Cl   -0.000177  0.000081 -0.000076
 ----------------------------------------
 Mulliken charges used for AMS results%charges...

 dE(predicted):    -0.33830E-05, dE(actual):    -0.37973E-04, Trust radius:    0.600000, all in a.u.
 
----------------------------------------------------------------------
Geometry Convergence after Step  10       (Hartree/Angstrom,Angstrom)
----------------------------------------------------------------------
current energy                               -2.05437090 Hartree
energy change                      -0.00003797     0.00000800    F
constrained gradient max            0.00076034     0.00010000    F
constrained gradient rms            0.00032059     0.00006667    F
gradient max                        0.00076034
gradient rms                        0.00032059
cart. step max                      0.00281493     0.00100000    F
cart. step rms                      0.00127759     0.00066667    F
 
 
--------
Geometry
--------
Formula: Cl7Pa
Atoms
  Index Symbol   x (angstrom)   y (angstrom)   z (angstrom)
      1     Pa    -1.15178829    -0.08597174     0.25213613       adf.R=2.200
      2     Cl     1.08057461    -0.64408083    -1.09777231       adf.R=1.725
      3     Cl    -1.47286606    -2.50681363    -0.84143124       adf.R=1.725
      4     Cl    -1.96950463    -1.58637160     2.22287983       adf.R=1.725
      5     Cl    -3.38728292     0.10456270    -1.07071221       adf.R=1.725
      6     Cl    -2.42766273     1.67271062     1.73292906       adf.R=1.725
      7     Cl     0.73117232     0.46530287     1.96403556       adf.R=1.725
      8     Cl    -0.65042899     2.10986822    -1.07666243       adf.R=1.725
 
Total System Charge            -2.00000
Bonding info available!
 
 *** GO1_GOStep11 ***

 SOLVATION
-------------------------------------------

  The Delley construction of COSMO surface surface is calculated

       Division Level for Surface Triangles (NDIV)                  3
       Final Division Level for Triangles (NFDIV)                   1
       Radius of the Solvent (RSOL)                           1.93000 angstr
  Dielectric Constant (EPSL)                                 78.39000

       COSMO equation is solved iteratively-               conjugate-gradient

       Maximun of Iterations for Charges (NCIX)                  1000
       Criterion for Charge convergence (CCNV)                1.0E-08

  COSMO charges included variationally in SCF

       COSMO included at every SCF cycle

  Geometry-dependent empirical factor                         0.00000

  C-Matrix calculated in cspmtx

  In cspmtx, C-Matrix calculated using fitted potential

-------------------------------------------



 -------------------------------------------
  COSMO surface
  Area             =          647.804
  Volume           =         1204.593
  Number of Points =         1413
 -------------------------------------------



 ======================
 RI Hartree-Fock Scheme
 ======================
  
 Fit Set Quality     : GOOD
 Threshold Quality   : GOOD
 Integration Quality : GOOD
 Fit Generation Method : AUTO
 Response Quality    : DEFAULT
 Is Range Separated  :  F
 
 RIHartreeFock Dependency: number of modified vectors:           7
 cosmo_calcen: 0.5 (esolb+esolc) (Hartrees) =   -0.257916

 Solvation energy (screening term,uncorrected) =   -161.844760 kcal/mol

 Solvation energy (dispersion and cavitation terms) =      1.211343 kcal/mol
 Solvation Energy Contributions (Hartrees)
          esola   esolb+esolc
     0.25791602   -0.51583203
 esol last cycle   -0.25791602
  
 Hartree-Fock exchange energy:   -660.537900410308     
 cosmo_calcen: 0.5 (esolb+esolc) (Hartrees) =   -0.257916

 Solvation energy (screening term,uncorrected) =   -161.844760 kcal/mol

 Solvation energy (dispersion and cavitation terms) =      1.211343 kcal/mol
 Solvation Energy Contributions (Hartrees)
          esola   esolb+esolc
     0.25791602   -0.51583203
 esol last cycle   -0.25791602

 Energy gradients wrt nuclear displacements
 ==========================================

     Atom      Cartesian (a.u./angstrom)
                 X         Y         Z
 ----------------------------------------
     1 Pa   -0.000071  0.000063  0.000182
     2 Cl    0.000216 -0.000035 -0.000209
     3 Cl    0.000001  0.000116  0.000096
     4 Cl   -0.000123  0.000124  0.000013
     5 Cl    0.000296 -0.000004  0.000185
     6 Cl   -0.000009 -0.000314 -0.000227
     7 Cl   -0.000194 -0.000003 -0.000009
     8 Cl   -0.000116  0.000053 -0.000031
 ----------------------------------------
 Mulliken charges used for AMS results%charges...

 dE(predicted):    -0.18858E-05, dE(actual):    -0.22784E-04, Trust radius:    0.600000, all in a.u.
 
----------------------------------------------------------------------
Geometry Convergence after Step  11       (Hartree/Angstrom,Angstrom)
----------------------------------------------------------------------
current energy                               -2.05439368 Hartree
energy change                      -0.00002278     0.00000800    F
constrained gradient max            0.00030584     0.00010000    F
constrained gradient rms            0.00014433     0.00006667    F
gradient max                        0.00030584
gradient rms                        0.00014433
cart. step max                      0.00265916     0.00100000    F
cart. step rms                      0.00100525     0.00066667    F
 
 
--------
Geometry
--------
Formula: Cl7Pa
Atoms
  Index Symbol   x (angstrom)   y (angstrom)   z (angstrom)
      1     Pa    -1.15185458    -0.08575159     0.25151296       adf.R=2.200
      2     Cl     1.08078926    -0.64474388    -1.09511314       adf.R=1.725
      3     Cl    -1.47335510    -2.50654057    -0.84320127       adf.R=1.725
      4     Cl    -1.96834578    -1.58794063     2.22252578       adf.R=1.725
      5     Cl    -3.38889391     0.10432349    -1.07002970       adf.R=1.725
      6     Cl    -2.42715599     1.67375717     1.73348078       adf.R=1.725
      7     Cl     0.73064121     0.46677189     1.96361974       adf.R=1.725
      8     Cl    -0.64961179     2.10933074    -1.07739277       adf.R=1.725
 
Total System Charge            -2.00000
Bonding info available!
 
 *** GO1_GOStep12 ***

 SOLVATION
-------------------------------------------

  The Delley construction of COSMO surface surface is calculated

       Division Level for Surface Triangles (NDIV)                  3
       Final Division Level for Triangles (NFDIV)                   1
       Radius of the Solvent (RSOL)                           1.93000 angstr
  Dielectric Constant (EPSL)                                 78.39000

       COSMO equation is solved iteratively-               conjugate-gradient

       Maximun of Iterations for Charges (NCIX)                  1000
       Criterion for Charge convergence (CCNV)                1.0E-08

  COSMO charges included variationally in SCF

       COSMO included at every SCF cycle

  Geometry-dependent empirical factor                         0.00000

  C-Matrix calculated in cspmtx

  In cspmtx, C-Matrix calculated using fitted potential

-------------------------------------------



 -------------------------------------------
  COSMO surface
  Area             =          647.824
  Volume           =         1204.653
  Number of Points =         1412
 -------------------------------------------



 ======================
 RI Hartree-Fock Scheme
 ======================
  
 Fit Set Quality     : GOOD
 Threshold Quality   : GOOD
 Integration Quality : GOOD
 Fit Generation Method : AUTO
 Response Quality    : DEFAULT
 Is Range Separated  :  F
 
 RIHartreeFock Dependency: number of modified vectors:           7
 cosmo_calcen: 0.5 (esolb+esolc) (Hartrees) =   -0.257910

 Solvation energy (screening term,uncorrected) =   -161.840721 kcal/mol

 Solvation energy (dispersion and cavitation terms) =      1.211381 kcal/mol
 Solvation Energy Contributions (Hartrees)
          esola   esolb+esolc
     0.25790958   -0.51581916
 esol last cycle   -0.25790958
  
 Hartree-Fock exchange energy:   -660.537573176533     
 cosmo_calcen: 0.5 (esolb+esolc) (Hartrees) =   -0.257910

 Solvation energy (screening term,uncorrected) =   -161.840722 kcal/mol

 Solvation energy (dispersion and cavitation terms) =      1.211381 kcal/mol
 Solvation Energy Contributions (Hartrees)
          esola   esolb+esolc
     0.25790958   -0.51581916
 esol last cycle   -0.25790958

 Energy gradients wrt nuclear displacements
 ==========================================

     Atom      Cartesian (a.u./angstrom)
                 X         Y         Z
 ----------------------------------------
     1 Pa    0.000190  0.000142 -0.000129
     2 Cl    0.000099  0.000023 -0.000065
     3 Cl    0.000018  0.000027  0.000069
     4 Cl   -0.000182 -0.000089  0.000194
     5 Cl    0.000123 -0.000067  0.000084
     6 Cl   -0.000060 -0.000102 -0.000071
     7 Cl   -0.000167  0.000002 -0.000077
     8 Cl   -0.000020  0.000064 -0.000005
 ----------------------------------------
 Mulliken charges used for AMS results%charges...

 dE(predicted):    -0.93541E-06, dE(actual):    -0.72251E-05, Trust radius:    0.600000, all in a.u.
 
----------------------------------------------------------------------
Geometry Convergence after Step  12       (Hartree/Angstrom,Angstrom)
----------------------------------------------------------------------
current energy                               -2.05440091 Hartree
energy change                      -0.00000723     0.00000800    T
constrained gradient max            0.00019479     0.00010000    F
constrained gradient rms            0.00010029     0.00006667    F
gradient max                        0.00019479
gradient rms                        0.00010029
cart. step max                      0.00151799     0.00100000    F
cart. step rms                      0.00057164     0.00066667    T
 
 
--------
Geometry
--------
Formula: Cl7Pa
Atoms
  Index Symbol   x (angstrom)   y (angstrom)   z (angstrom)
      1     Pa    -1.15228676    -0.08567759     0.25139858       adf.R=2.200
      2     Cl     1.08070413    -0.64521644    -1.09359515       adf.R=1.725
      3     Cl    -1.47355156    -2.50632654    -0.84412076       adf.R=1.725
      4     Cl    -1.96709915    -1.58876066     2.22247859       adf.R=1.725
      5     Cl    -3.38960200     0.10446790    -1.07023535       adf.R=1.725
      6     Cl    -2.42693543     1.67442406     1.73378883       adf.R=1.725
      7     Cl     0.73035361     0.46735703     1.96341362       adf.R=1.725
      8     Cl    -0.64936953     2.10893885    -1.07772598       adf.R=1.725
 
Total System Charge            -2.00000
Bonding info available!
 
 *** GO1_GOStep13 ***

 SOLVATION
-------------------------------------------

  The Delley construction of COSMO surface surface is calculated

       Division Level for Surface Triangles (NDIV)                  3
       Final Division Level for Triangles (NFDIV)                   1
       Radius of the Solvent (RSOL)                           1.93000 angstr
  Dielectric Constant (EPSL)                                 78.39000

       COSMO equation is solved iteratively-               conjugate-gradient

       Maximun of Iterations for Charges (NCIX)                  1000
       Criterion for Charge convergence (CCNV)                1.0E-08

  COSMO charges included variationally in SCF

       COSMO included at every SCF cycle

  Geometry-dependent empirical factor                         0.00000

  C-Matrix calculated in cspmtx

  In cspmtx, C-Matrix calculated using fitted potential

-------------------------------------------



 -------------------------------------------
  COSMO surface
  Area             =          647.827
  Volume           =         1204.660
  Number of Points =         1413
 -------------------------------------------



 ======================
 RI Hartree-Fock Scheme
 ======================
  
 Fit Set Quality     : GOOD
 Threshold Quality   : GOOD
 Integration Quality : GOOD
 Fit Generation Method : AUTO
 Response Quality    : DEFAULT
 Is Range Separated  :  F
 
 RIHartreeFock Dependency: number of modified vectors:           7
 cosmo_calcen: 0.5 (esolb+esolc) (Hartrees) =   -0.257903

 Solvation energy (screening term,uncorrected) =   -161.836695 kcal/mol

 Solvation energy (dispersion and cavitation terms) =      1.211386 kcal/mol
 Solvation Energy Contributions (Hartrees)
          esola   esolb+esolc
     0.25790316   -0.51580632
 esol last cycle   -0.25790316
  
 Hartree-Fock exchange energy:   -660.537472324611     
 cosmo_calcen: 0.5 (esolb+esolc) (Hartrees) =   -0.257903

 Solvation energy (screening term,uncorrected) =   -161.836695 kcal/mol

 Solvation energy (dispersion and cavitation terms) =      1.211386 kcal/mol
 Solvation Energy Contributions (Hartrees)
          esola   esolb+esolc
     0.25790316   -0.51580632
 esol last cycle   -0.25790316

 Energy gradients wrt nuclear displacements
 ==========================================

     Atom      Cartesian (a.u./angstrom)
                 X         Y         Z
 ----------------------------------------
     1 Pa    0.000176  0.000138 -0.000189
     2 Cl    0.000043  0.000038  0.000005
     3 Cl    0.000067 -0.000001  0.000049
     4 Cl   -0.000155 -0.000155  0.000233
     5 Cl    0.000056 -0.000082  0.000008
     6 Cl   -0.000057  0.000015 -0.000004
     7 Cl   -0.000145 -0.000013 -0.000108
     8 Cl    0.000015  0.000061  0.000005
 ----------------------------------------
 Mulliken charges used for AMS results%charges...

 dE(predicted):    -0.28986E-06, dE(actual):     0.23138E-05, Trust radius:    0.020000, all in a.u.
 
----------------------------------------------------------------------
Geometry Convergence after Step  13       (Hartree/Angstrom,Angstrom)
----------------------------------------------------------------------
current energy                               -2.05439859 Hartree
energy change                       0.00000231     0.00000800    T
constrained gradient max            0.00023471     0.00010000    F
constrained gradient rms            0.00009881     0.00006667    F
gradient max                        0.00023471
gradient rms                        0.00009881
cart. step max                      0.00142236     0.00100000    F
cart. step rms                      0.00052763     0.00066667    T
 
 
--------
Geometry
--------
Formula: Cl7Pa
Atoms
  Index Symbol   x (angstrom)   y (angstrom)   z (angstrom)
      1     Pa    -1.15262829    -0.08566330     0.25142525       adf.R=2.200
      2     Cl     1.08069270    -0.64567871    -1.09230384       adf.R=1.725
      3     Cl    -1.47403054    -2.50602881    -0.84493108       adf.R=1.725
      4     Cl    -1.96567679    -1.58936919     2.22242206       adf.R=1.725
      5     Cl    -3.38997288     0.10486046    -1.07049616       adf.R=1.725
      6     Cl    -2.42693404     1.67474861     1.73397810       adf.R=1.725
      7     Cl     0.73012355     0.46790482     1.96347789       adf.R=1.725
      8     Cl    -0.64936038     2.10843273    -1.07816985       adf.R=1.725
 
Total System Charge            -2.00000
Bonding info available!
 
 *** GO1_GOStep14 ***

 SOLVATION
-------------------------------------------

  The Delley construction of COSMO surface surface is calculated

       Division Level for Surface Triangles (NDIV)                  3
       Final Division Level for Triangles (NFDIV)                   1
       Radius of the Solvent (RSOL)                           1.93000 angstr
  Dielectric Constant (EPSL)                                 78.39000

       COSMO equation is solved iteratively-               conjugate-gradient

       Maximun of Iterations for Charges (NCIX)                  1000
       Criterion for Charge convergence (CCNV)                1.0E-08

  COSMO charges included variationally in SCF

       COSMO included at every SCF cycle

  Geometry-dependent empirical factor                         0.00000

  C-Matrix calculated in cspmtx

  In cspmtx, C-Matrix calculated using fitted potential

-------------------------------------------



 -------------------------------------------
  COSMO surface
  Area             =          647.825
  Volume           =         1204.652
  Number of Points =         1415
 -------------------------------------------



 ======================
 RI Hartree-Fock Scheme
 ======================
  
 Fit Set Quality     : GOOD
 Threshold Quality   : GOOD
 Integration Quality : GOOD
 Fit Generation Method : AUTO
 Response Quality    : DEFAULT
 Is Range Separated  :  F
 
 RIHartreeFock Dependency: number of modified vectors:           7
 cosmo_calcen: 0.5 (esolb+esolc) (Hartrees) =   -0.257898

 Solvation energy (screening term,uncorrected) =   -161.833580 kcal/mol

 Solvation energy (dispersion and cavitation terms) =      1.211383 kcal/mol
 Solvation Energy Contributions (Hartrees)
          esola   esolb+esolc
     0.25789820   -0.51579640
 esol last cycle   -0.25789820
  
 Hartree-Fock exchange energy:   -660.537469515906     
 cosmo_calcen: 0.5 (esolb+esolc) (Hartrees) =   -0.257898

 Solvation energy (screening term,uncorrected) =   -161.833580 kcal/mol

 Solvation energy (dispersion and cavitation terms) =      1.211383 kcal/mol
 Solvation Energy Contributions (Hartrees)
          esola   esolb+esolc
     0.25789820   -0.51579640
 esol last cycle   -0.25789820

 Energy gradients wrt nuclear displacements
 ==========================================

     Atom      Cartesian (a.u./angstrom)
                 X         Y         Z
 ----------------------------------------
     1 Pa    0.000125  0.000107 -0.000181
     2 Cl    0.000007  0.000054  0.000046
     3 Cl    0.000096 -0.000010  0.000040
     4 Cl   -0.000106 -0.000160  0.000216
     5 Cl    0.000037 -0.000080 -0.000042
     6 Cl   -0.000049  0.000083  0.000026
     7 Cl   -0.000129 -0.000034 -0.000112
     8 Cl    0.000019  0.000039  0.000007
 ----------------------------------------
 Mulliken charges used for AMS results%charges...

 dE(predicted):    -0.17603E-06, dE(actual):     0.31389E-05, Trust radius:    0.020000, all in a.u.
 
----------------------------------------------------------------------
Geometry Convergence after Step  14       (Hartree/Angstrom,Angstrom)
----------------------------------------------------------------------
current energy                               -2.05439545 Hartree
energy change                       0.00000314     0.00000800    T
constrained gradient max            0.00021727     0.00010000    F
constrained gradient rms            0.00009049     0.00006667    F
gradient max                        0.00021727
gradient rms                        0.00009049
cart. step max                      0.00230775     0.00100000    F
cart. step rms                      0.00090136     0.00066667    F
 
 
--------
Geometry
--------
Formula: Cl7Pa
Atoms
  Index Symbol   x (angstrom)   y (angstrom)   z (angstrom)
      1     Pa    -1.15292291    -0.08567607     0.25150108       adf.R=2.200
      2     Cl     1.08086498    -0.64668394    -1.09028630       adf.R=1.725
      3     Cl    -1.47511365    -2.50541384    -0.84639578       adf.R=1.725
      4     Cl    -1.96336903    -1.59021834     2.22218363       adf.R=1.725
      5     Cl    -3.39045977     0.10568977    -1.07056115       adf.R=1.725
      6     Cl    -2.42720538     1.67481305     1.73419024       adf.R=1.725
      7     Cl     0.72980829     0.46917780     1.96381819       adf.R=1.725
      8     Cl    -0.64938921     2.10751819    -1.07904754       adf.R=1.725
 
Total System Charge            -2.00000
Bonding info available!
 
 *** GO1_GOStep15 ***

 SOLVATION
-------------------------------------------

  The Delley construction of COSMO surface surface is calculated

       Division Level for Surface Triangles (NDIV)                  3
       Final Division Level for Triangles (NFDIV)                   1
       Radius of the Solvent (RSOL)                           1.93000 angstr
  Dielectric Constant (EPSL)                                 78.39000

       COSMO equation is solved iteratively-               conjugate-gradient

       Maximun of Iterations for Charges (NCIX)                  1000
       Criterion for Charge convergence (CCNV)                1.0E-08

  COSMO charges included variationally in SCF

       COSMO included at every SCF cycle

  Geometry-dependent empirical factor                         0.00000

  C-Matrix calculated in cspmtx

  In cspmtx, C-Matrix calculated using fitted potential

-------------------------------------------



 -------------------------------------------
  COSMO surface
  Area             =          647.806
  Volume           =         1204.623
  Number of Points =         1415
 -------------------------------------------



 ======================
 RI Hartree-Fock Scheme
 ======================
  
 Fit Set Quality     : GOOD
 Threshold Quality   : GOOD
 Integration Quality : GOOD
 Fit Generation Method : AUTO
 Response Quality    : DEFAULT
 Is Range Separated  :  F
 
 RIHartreeFock Dependency: number of modified vectors:           7
 cosmo_calcen: 0.5 (esolb+esolc) (Hartrees) =   -0.257893

 Solvation energy (screening term,uncorrected) =   -161.830433 kcal/mol

 Solvation energy (dispersion and cavitation terms) =      1.211347 kcal/mol
 Solvation Energy Contributions (Hartrees)
          esola   esolb+esolc
     0.25789318   -0.51578637
 esol last cycle   -0.25789318
  
 Hartree-Fock exchange energy:   -660.537506960802     
 cosmo_calcen: 0.5 (esolb+esolc) (Hartrees) =   -0.257893

 Solvation energy (screening term,uncorrected) =   -161.830433 kcal/mol

 Solvation energy (dispersion and cavitation terms) =      1.211347 kcal/mol
 Solvation Energy Contributions (Hartrees)
          esola   esolb+esolc
     0.25789318   -0.51578637
 esol last cycle   -0.25789318

 Energy gradients wrt nuclear displacements
 ==========================================

     Atom      Cartesian (a.u./angstrom)
                 X         Y         Z
 ----------------------------------------
     1 Pa    0.000071  0.000045 -0.000145
     2 Cl   -0.000044  0.000071  0.000083
     3 Cl    0.000121 -0.000015  0.000029
     4 Cl   -0.000038 -0.000125  0.000157
     5 Cl    0.000031 -0.000066 -0.000090
     6 Cl   -0.000049  0.000140  0.000050
     7 Cl   -0.000098 -0.000055 -0.000087
     8 Cl    0.000005  0.000005  0.000002
 ----------------------------------------
 Mulliken charges used for AMS results%charges...

 dE(predicted):    -0.24171E-06, dE(actual):     0.28875E-05, Trust radius:    0.020000, all in a.u.
 
----------------------------------------------------------------------
Geometry Convergence after Step  15       (Hartree/Angstrom,Angstrom)
----------------------------------------------------------------------
current energy                               -2.05439257 Hartree
energy change                       0.00000289     0.00000800    T
constrained gradient max            0.00015832     0.00010000    F
constrained gradient rms            0.00007715     0.00006667    F
gradient max                        0.00015832
gradient rms                        0.00007715
cart. step max                      0.00344753     0.00100000    F
cart. step rms                      0.00151927     0.00066667    F
 
 
--------
Geometry
--------
Formula: Cl7Pa
Atoms
  Index Symbol   x (angstrom)   y (angstrom)   z (angstrom)
      1     Pa    -1.15306760    -0.08572637     0.25157285       adf.R=2.200
      2     Cl     1.08144541    -0.64861942    -1.08712644       adf.R=1.725
      3     Cl    -1.47717582    -2.50431537    -0.84894250       adf.R=1.725
      4     Cl    -1.95992151    -1.59146783     2.22157367       adf.R=1.725
      5     Cl    -3.39128184     0.10705354    -1.07005507       adf.R=1.725
      6     Cl    -2.42790935     1.67437147     1.73443073       adf.R=1.725
      7     Cl     0.72937449     0.47185054     1.96445190       adf.R=1.725
      8     Cl    -0.64925045     2.10606005    -1.08050278       adf.R=1.725
 
Total System Charge            -2.00000
Bonding info available!
 
 *** GO1_GOStep16 ***

 SOLVATION
-------------------------------------------

  The Delley construction of COSMO surface surface is calculated

       Division Level for Surface Triangles (NDIV)                  3
       Final Division Level for Triangles (NFDIV)                   1
       Radius of the Solvent (RSOL)                           1.93000 angstr
  Dielectric Constant (EPSL)                                 78.39000

       COSMO equation is solved iteratively-               conjugate-gradient

       Maximun of Iterations for Charges (NCIX)                  1000
       Criterion for Charge convergence (CCNV)                1.0E-08

  COSMO charges included variationally in SCF

       COSMO included at every SCF cycle

  Geometry-dependent empirical factor                         0.00000

  C-Matrix calculated in cspmtx

  In cspmtx, C-Matrix calculated using fitted potential

-------------------------------------------



 -------------------------------------------
  COSMO surface
  Area             =          647.276
  Volume           =         1203.824
  Number of Points =         1414
 -------------------------------------------



 ======================
 RI Hartree-Fock Scheme
 ======================
  
 Fit Set Quality     : GOOD
 Threshold Quality   : GOOD
 Integration Quality : GOOD
 Fit Generation Method : AUTO
 Response Quality    : DEFAULT
 Is Range Separated  :  F
 
 RIHartreeFock Dependency: number of modified vectors:           7
 cosmo_calcen: 0.5 (esolb+esolc) (Hartrees) =   -0.257883

 Solvation energy (screening term,uncorrected) =   -161.824007 kcal/mol

 Solvation energy (dispersion and cavitation terms) =      1.210357 kcal/mol
 Solvation Energy Contributions (Hartrees)
          esola   esolb+esolc
     0.25788294   -0.51576589
 esol last cycle   -0.25788294
  
 Hartree-Fock exchange energy:   -660.537579814324     
 cosmo_calcen: 0.5 (esolb+esolc) (Hartrees) =   -0.257883

 Solvation energy (screening term,uncorrected) =   -161.824008 kcal/mol

 Solvation energy (dispersion and cavitation terms) =      1.210357 kcal/mol
 Solvation Energy Contributions (Hartrees)
          esola   esolb+esolc
     0.25788294   -0.51576589
 esol last cycle   -0.25788294

 Energy gradients wrt nuclear displacements
 ==========================================

     Atom      Cartesian (a.u./angstrom)
                 X         Y         Z
 ----------------------------------------
     1 Pa    0.000022 -0.000085 -0.000090
     2 Cl   -0.000107  0.000090  0.000117
     3 Cl    0.000130 -0.000015  0.000017
     4 Cl    0.000037 -0.000041  0.000047
     5 Cl    0.000030 -0.000044 -0.000122
     6 Cl   -0.000061  0.000172  0.000064
     7 Cl   -0.000038 -0.000063 -0.000020
     8 Cl   -0.000013 -0.000013 -0.000012
 ----------------------------------------
 Mulliken charges used for AMS results%charges...

 dE(predicted):    -0.33854E-06, dE(actual):     0.44844E-05, Trust radius:    0.020000, all in a.u.
 
----------------------------------------------------------------------
Geometry Convergence after Step  16       (Hartree/Angstrom,Angstrom)
----------------------------------------------------------------------
current energy                               -2.05438808 Hartree
energy change                       0.00000448     0.00000800    T
constrained gradient max            0.00018147     0.00010000    F
constrained gradient rms            0.00007058     0.00006667    F
gradient max                        0.00018147
gradient rms                        0.00007058
cart. step max                      0.00457252     0.00100000    F
cart. step rms                      0.00226232     0.00066667    F
 
 
--------
Geometry
--------
Formula: Cl7Pa
Atoms
  Index Symbol   x (angstrom)   y (angstrom)   z (angstrom)
      1     Pa    -1.15292387    -0.08579607     0.25154640       adf.R=2.200
      2     Cl     1.08263668    -0.65174659    -1.08267429       adf.R=1.725
      3     Cl    -1.48033102    -2.50265440    -0.85278184       adf.R=1.725
      4     Cl    -1.95551097    -1.59320839     2.22044787       adf.R=1.725
      5     Cl    -3.39261638     0.10891448    -1.06857683       adf.R=1.725
      6     Cl    -2.42907145     1.67321317     1.73472908       adf.R=1.725
      7     Cl     0.72877546     0.47642306     1.96526350       adf.R=1.725
      8     Cl    -0.64874513     2.10406135    -1.08255153       adf.R=1.725
 
Total System Charge            -2.00000
Bonding info available!
 
 *** GO1_GOStep17 ***

 SOLVATION
-------------------------------------------

  The Delley construction of COSMO surface surface is calculated

       Division Level for Surface Triangles (NDIV)                  3
       Final Division Level for Triangles (NFDIV)                   1
       Radius of the Solvent (RSOL)                           1.93000 angstr
  Dielectric Constant (EPSL)                                 78.39000

       COSMO equation is solved iteratively-               conjugate-gradient

       Maximun of Iterations for Charges (NCIX)                  1000
       Criterion for Charge convergence (CCNV)                1.0E-08

  COSMO charges included variationally in SCF

       COSMO included at every SCF cycle

  Geometry-dependent empirical factor                         0.00000

  C-Matrix calculated in cspmtx

  In cspmtx, C-Matrix calculated using fitted potential

[...]
     8    Cl       0.096503   0.040930  -0.085953
 
 Mode:    22      Frequency (cm-1):      239.7588     Intensity (km/mol):      478.4822
 Index  Atom      ---- Displacements (x/y/z) ----
     1    Pa       0.148691   0.103326  -0.018998
     2    Cl      -0.208683   0.121936   0.160297
     3    Cl       0.040887  -0.196843  -0.124695
     4    Cl      -0.138816  -0.256122   0.393818
     5    Cl      -0.360912   0.070520  -0.208223
     6    Cl       0.012979   0.059266   0.019872
     7    Cl      -0.288688  -0.096817  -0.336436
     8    Cl      -0.039155  -0.384607   0.220886
 
 Mode:    23      Frequency (cm-1):      245.9765     Intensity (km/mol):      458.2228
 Index  Atom      ---- Displacements (x/y/z) ----
     1    Pa      -0.074010   0.076458  -0.154256
     2    Cl      -0.012601   0.009412  -0.021159
     3    Cl      -0.015107   0.036112  -0.033925
     4    Cl      -0.161965  -0.310790   0.377201
     5    Cl       0.466287  -0.028403   0.275120
     6    Cl      -0.027332   0.033030  -0.079652
     7    Cl       0.346006   0.107168   0.284867
     8    Cl      -0.106309  -0.351683   0.216702
 
 Mode:    24      Frequency (cm-1):      311.3599     Intensity (km/mol):        8.1624
 Index  Atom      ---- Displacements (x/y/z) ----
     1    Pa      -0.007734   0.017655   0.013613
     2    Cl      -0.264933   0.076043   0.161067
     3    Cl       0.033377   0.279240   0.130086
     4    Cl       0.121086   0.238216  -0.303743
     5    Cl       0.342574  -0.028061   0.204074
     6    Cl       0.191209  -0.261419  -0.220492
     7    Cl      -0.293930  -0.087175  -0.266415
     8    Cl      -0.078288  -0.333492   0.205483

 Vibrational polarizability tensor (a.u.):
                  X                   Y                   Z
 X            3887.82560          1534.61103          -120.45896
 Y            1534.61103          4189.37047           309.86630
 Z            -120.45896           309.86630          2291.73167

 Isotropic =      3456.3    atomic units

PES point character: Geometry corresponds to a local minimum on the PES.




 ============================
 Statistical Thermal Analysis  ***  ideal gas assumed  ***
 ============================
  
 Pressure:                  1.000000 atm.
 Temperature:             298.150000 K



 Moments of Inertia [amu*bohr^2] and principal axis
 ==================================================

        3903.5896       3988.7403       4195.6764
 ------------------------------------------------
          -0.0975          0.9150          0.3914
           0.8626          0.2738         -0.4253
           0.4963         -0.2961          0.8161


 The rotational contribution to the molecular entropy includes
 a term, dependent on the symmetry number sigma. The results 
 reported below were computed using sigma = 1, determined from
 the point group symmetry of the input geometry (NOSYM). 
 If this is not the correct symmetry, try symmetrizing the molecule before
 running the calculation (note: linear molecules should be aligned along one
 of the Cartesian axes).
 Contributions from frequencies below 20 1/cm are not included in vibrational sums.
 Their contributions, if any, are reported separately.


     Temp                                                        Transl      Rotat     Vibrat     Total
     ----                                                        ------      -----     ------     -----

     298.15   Entropy (cal/mol-K):                               44.368     32.546     45.355    122.269
              Nuclear Internal Energy (kcal/mol):                 0.889      0.889     10.715     12.492
              Constant Volume Heat Capacity (cal/mol-K):          2.981      2.981     31.707     37.668
          (c) Constant Volume Heat Capacity (cal/mol-K):          2.981      2.981     29.427     35.388

 Contributions from frequencies below 20 1/cm
 Frequency (1/cm):                                    5.240
 Entropy (cal/mol-K):                                 9.295
 Nuclear Internal Energy (kcal/mol):                  0.593
 Constant Volume Heat Capacity (cal/mol-K):           1.987

       Summary of energy terms
                                                   hartree              eV         kcal/mol           kJ/mol
                                      --------------------     -----------       ----------      -----------
      Energy from Engine:               -2.054395449131504        -55.9029         -1289.15         -5393.81
      Nuclear Internal Energy:           0.019907725707998          0.5417            12.49            52.27
  (c) Nuclear Internal Energy:           0.018642909320479          0.5073            11.70            48.95
      Internal Energy U:                -2.034487723423506        -55.3612         -1276.66         -5341.55
      pV/n = RT:                         0.000944186013486          0.0257             0.59             2.48
      Enthalpy H:                       -2.033543537410020        -55.3355         -1276.07         -5339.07
      -T*S:                             -0.058093828668651         -1.5808           -36.45          -152.53
  (c) -T*S:                             -0.059458640231047         -1.6180           -37.31          -156.11
      Gibbs free energy:                -2.091637366078671        -56.9163         -1312.52         -5491.59
 
 
 
  (c) The properties marked with this symbol have been corrected using 'low vibrational frequency free rotor
      interpolation corrections'. For those terms all positive frequencies are used (also ones below 20 1/cm),
      but the contribution to the partition function of small vibrational frequencies is modified as described
      in the following paper:
      S. Grimme, 'Supramolecular Binding Thermodynamics by Dispersion-Corrected Density Functional Theory'
      (Chem. Eur. J. 2012, 18, 9955-9964)
      Configuration: Dampener Frequency          :   100.000 1/cm
                     Dampener Alpha              :     4.000
                     Averaging Moment of Inertia : 1.000E-44 kg m2

--------------
Atomic charges
--------------
  Index   Atom    Charge
      1     Pa    1.1734
      2     Cl   -0.4888
      3     Cl   -0.4981
      4     Cl   -0.4321
      5     Cl   -0.4331
      6     Cl   -0.4521
      7     Cl   -0.4326
      8     Cl   -0.4367


Dipole moment vector    (Debye):    10.84484259    0.94395131   -2.06623027
              magnitude (Debye):    11.08020589


-----------------------
Molecular orbitals info
-----------------------
n orbitals:              373
n spin:                    1

Note: only printing virtual orbitals with
      energy smaller than HOMO + 100. eV

HOMO (eV):              -7.5017
LUMO (eV):              -2.9613
HOMO-LUMO gap (eV):      4.5404

   Index   Energy (eV)    Occupation
     294       87.6003         0.000       
     293       86.3073         0.000       
     292       84.8337         0.000       
     291       82.9215         0.000       
     290       81.9730         0.000       
     289       79.7876         0.000       
     288       78.9624         0.000       
     287       78.4641         0.000       
     286       78.0333         0.000       
     285       77.1346         0.000       
     284       76.2131         0.000       
     283       75.8410         0.000       
     282       74.9026         0.000       
     281       73.9079         0.000       
     280       73.8002         0.000       
     279       73.4453         0.000       
     278       73.2277         0.000       
     277       73.0478         0.000       
     276       72.9739         0.000       
     275       72.3854         0.000       
     274       71.7212         0.000       
     273       71.2313         0.000       
     272       69.8226         0.000       
     271       69.3271         0.000       
     270       69.1875         0.000       
     269       68.5856         0.000       
     268       68.3442         0.000       
     267       67.4389         0.000       
     266       67.0988         0.000       
     265       66.9436         0.000       
     264       66.6329         0.000       
     263       66.0201         0.000       
     262       65.4817         0.000       
     261       65.3371         0.000       
     260       60.3201         0.000       
     259       60.1264         0.000       
     258       59.4487         0.000       
     257       54.1007         0.000       
     256       43.7686         0.000       
     255       42.6686         0.000       
     254       42.6162         0.000       
     253       42.2904         0.000       
     252       42.0317         0.000       
     251       41.7242         0.000       
     250       41.6638         0.000       
     249       41.4163         0.000       
     248       41.1170         0.000       
     247       40.8994         0.000       
     246       40.5233         0.000       
     245       40.2447         0.000       
     244       40.0590         0.000       
     243       40.0017         0.000       
     242       39.8004         0.000       
     241       39.6567         0.000       
     240       39.1938         0.000       
     239       39.1449         0.000       
     238       39.1114         0.000       
     237       38.7746         0.000       
     236       38.6300         0.000       
     235       38.5257         0.000       
     234       38.4410         0.000       
     233       38.2848         0.000       
     232       38.2521         0.000       
     231       37.8077         0.000       
     230       37.7092         0.000       
     229       37.5681         0.000       
     228       37.5607         0.000       
     227       37.2783         0.000       
     226       37.1611         0.000       
     225       37.1366         0.000       
     224       37.0759         0.000       
     223       36.6122         0.000       
     222       36.5139         0.000       
     221       36.4170         0.000       
     220       36.2953         0.000       
     219       36.1386         0.000       
     218       35.6471         0.000       
     217       35.3059         0.000       
     216       35.2191         0.000       
     215       34.8971         0.000       
     214       34.8407         0.000       
     213       34.4024         0.000       
     212       34.3196         0.000       
     211       33.7962         0.000       
     210       33.6443         0.000       
     209       33.4188         0.000       
     208       33.2332         0.000       
     207       32.5472         0.000       
     206       28.8146         0.000       
     205       28.8104         0.000       
     204       28.5717         0.000       
     203       27.5663         0.000       
     202       27.3072         0.000       
     201       26.7473         0.000       
     200       26.3591         0.000       
     199       25.7600         0.000       
     198       25.6049         0.000       
     197       25.0239         0.000       
     196       24.6971         0.000       
     195       24.6249         0.000       
     194       23.4419         0.000       
     193       23.1392         0.000       
     192       22.6527         0.000       
     191       22.3212         0.000       
     190       21.5233         0.000       
     189       21.4766         0.000       
     188       20.5083         0.000       
     187       20.0941         0.000       
     186       19.0338         0.000       
     185       18.9350         0.000       
     184       18.6288         0.000       
     183       18.5685         0.000       
     182       18.1179         0.000       
     181       17.8736         0.000       
     180       17.6105         0.000       
     179       17.3883         0.000       
     178       16.5560         0.000       
     177       16.4825         0.000       
     176       15.6245         0.000       
     175       15.3556         0.000       
     174       15.1471         0.000       
     173       15.1315         0.000       
     172       15.0832         0.000       
     171       15.0034         0.000       
     170       14.6970         0.000       
     169       14.6334         0.000       
     168       14.2658         0.000       
     167       14.2450         0.000       
     166       14.1936         0.000       
     165       13.9367         0.000       
     164       13.8130         0.000       
     163       13.6580         0.000       
     162       13.4908         0.000       
     161       13.4756         0.000       
     160       13.4488         0.000       
     159       12.8404         0.000       
     158       12.3939         0.000       
     157       12.1979         0.000       
     156       11.6898         0.000       
     155       11.6775         0.000       
     154       11.2340         0.000       
     153       11.1039         0.000       
     152       10.9144         0.000       
     151       10.6220         0.000       
     150       10.6007         0.000       
     149       10.5194         0.000       
     148       10.3070         0.000       
     147       10.0673         0.000       
     146        9.7904         0.000       
     145        9.5693         0.000       
     144        9.4223         0.000       
     143        9.3151         0.000       
     142        9.0858         0.000       
     141        8.8659         0.000       
     140        8.8206         0.000       
     139        8.3798         0.000       
     138        8.3764         0.000       
     137        8.2257         0.000       
     136        7.9956         0.000       
     135        7.8637         0.000       
     134        7.8174         0.000       
     133        7.7180         0.000       
     132        7.5354         0.000       
     131        7.4012         0.000       
     130        7.0709         0.000       
     129        6.0357         0.000       
     128        4.7417         0.000       
     127        3.6141         0.000       
     126        3.5618         0.000       
     125        3.5489         0.000       
     124        3.0871         0.000       
     123        2.8654         0.000       
     122        2.7257         0.000       
     121        2.5916         0.000       
     120        2.5563         0.000       
     119        1.9767         0.000       
     118        1.7538         0.000       
     117        0.9696         0.000       
     116        0.4572         0.000       
     115       -0.5904         0.000       
     114       -0.6367         0.000       
     113       -2.6311         0.000       
     112       -2.7603         0.000       
     111       -2.7904         0.000       
     110       -2.8671         0.000       
     109       -2.8773         0.000       
     108       -2.9063         0.000       
     107       -2.9613         0.000 < LUMO
     106       -7.5017         2.000 < HOMO
     105       -7.7452         2.000       
     104       -7.8194         2.000       
     103       -7.9424         2.000       
     102       -8.1463         2.000       
     101       -8.1555         2.000       
     100       -8.5900         2.000       
      99       -8.6429         2.000       
      98       -8.9853         2.000       
      97       -8.9966         2.000       
      96       -9.0108         2.000       
      95       -9.0944         2.000       
      94       -9.1029         2.000       
      93       -9.1146         2.000       
      92       -9.1576         2.000       
      91      -10.0670         2.000       
      90      -10.1018         2.000       
      89      -10.1105         2.000       
      88      -10.2285         2.000       
      87      -10.3638         2.000       
      86      -10.4063         2.000       
      85      -21.1402         2.000       
      84      -21.1851         2.000       
      83      -21.2812         2.000       
      82      -21.4879         2.000       
      81      -21.7246         2.000       
      80      -21.9283         2.000       
      79      -22.2059         2.000       
      78      -26.9364         2.000       
      77      -27.0119         2.000       
      76      -27.0162         2.000       
      75      -51.3272         2.000       
      74     -101.7468         2.000       
      73     -101.7524         2.000       
      72     -101.7589         2.000       
      71     -101.7614         2.000       
      70     -101.7626         2.000       
      69     -196.0499         2.000       
      68     -196.0582         2.000       
      67     -196.1018         2.000       
      66     -196.1028         2.000       
      65     -196.1151         2.000       
      64     -196.1563         2.000       
      63     -196.2696         2.000       
      62     -196.2743         2.000       
      61     -196.3164         2.000       
      60     -196.3755         2.000       
      59     -196.3881         2.000       
      58     -196.3994         2.000       
      57     -196.4021         2.000       
      56     -196.4040         2.000       
      55     -196.4141         2.000       
      54     -196.4142         2.000       
      53     -196.4187         2.000       
      52     -196.4235         2.000       
      51     -196.4479         2.000       
      50     -196.4492         2.000       
      49     -196.4524         2.000       
      48     -209.0585         2.000       
      47     -209.0600         2.000       
      46     -209.0776         2.000       
      45     -259.6221         2.000       
      44     -259.6768         2.000       
      43     -259.8387         2.000       
      42     -259.9475         2.000       
      41     -259.9723         2.000       
      40     -259.9737         2.000       
      39     -259.9770         2.000       
      38     -307.6125         2.000       
      37     -363.0193         2.000       
      36     -363.0208         2.000       
      35     -363.0270         2.000       
      34     -363.0272         2.000       
      33     -363.0377         2.000       
      32     -363.0397         2.000       
      31     -363.0545         2.000       
      30     -714.8677         2.000       
      29     -714.8848         2.000       
      28     -714.8987         2.000       
      27     -714.9096         2.000       
      26     -714.9175         2.000       
      25    -1043.1887         2.000       
      24    -1043.1945         2.000       
      23    -1043.2019         2.000       
      22    -1361.3752         2.000       
      21    -2775.7988         2.000       
      20    -2775.8540         2.000       
      19    -2776.0182         2.000       
      18    -2776.1277         2.000       
      17    -2776.1514         2.000       
      16    -2776.1536         2.000       
      15    -2776.1556         2.000       
      14    -3486.6608         2.000       
      13    -3486.6678         2.000       
      12    -3486.6719         2.000       
      11    -3486.6757         2.000       
      10    -3486.6794         2.000       
       9    -4348.9183         2.000       
       8    -4348.9212         2.000       
       7    -4348.9255         2.000       
       6    -5319.9805         2.000       
       5   -17562.8731         2.000       
       4   -17562.8735         2.000       
       3   -17562.8748         2.000       
       2   -21038.6725         2.000       
       1  -112700.2642         2.000       

Final PES point is a local minimum. Geometry optimization successful!


AMS application finished. Exiting.
NORMAL TERMINATION
     Total cpu time:   16203.46
  Total system time:     412.22
 Total elapsed time:   16718.69
