

 Parallel Execution: Process Information
 ==============================================================================
 Rank   Node Name                              NodeID   MyNodeRank  NodeMaster
    0   u-0-5.local                               0          0          0
    1   u-0-5.local                               0          1         -1
    2   u-0-5.local                               0          2         -1
    3   u-0-5.local                               0          3         -1
    4   u-0-5.local                               1          0          1
    5   u-0-5.local                               1          1         -1
    6   u-0-5.local                               1          2         -1
    7   u-0-5.local                               1          3         -1
    8   u-0-5.local                               2          0          2
    9   u-0-5.local                               2          1         -1
   10   u-0-5.local                               2          2         -1
   11   u-0-5.local                               2          3         -1
   12   u-0-5.local                               3          0          3
   13   u-0-5.local                               3          1         -1
   14   u-0-5.local                               3          2         -1
   15   u-0-5.local                               3          3         -1
 ==============================================================================


May use up to 31228MB of RAM as shared memory on node 0
May use up to 31250MB of RAM as shared memory on node 1
May use up to 31250MB of RAM as shared memory on node 2
May use up to 31250MB of RAM as shared memory on node 3

 *******************************************************************************
 *                                                                             *
 *  --------------------------------                                           *
 *   Amsterdam Modeling Suite (AMS)              2023.104                      *
 *  --------------------------------                                           *
 *                                               r115785 2023-10-06            *
 *                                                                             *
 *                                                                             *
 *                              =================                              *
 *                              |               |                              *
 *                              |     A M S     |                              *
 *                              |               |                              *
 *                              =================                              *
 *                                                                             *
 *                                                                             *
 *   Online information and documentation:  https://www.scm.com/support/       *
 *   E-mail:  support@scm.com   info@scm.com                                   *
 *                                                                             *
 *   Scientific publications using AMS results must be properly referenced     *
 *   See the User Manuals (or the web site) for recommended citations          *
 *   The terms and conditions of the End User License Agreement apply to       *
 *   the use of AMS, https://www.scm.com/license-terms/                        *
 *                                                                             *
 **********************  x86_64_linux_intel / intelmpi  ************************
 
 Licensed to: Dr. Val?rie Vallet / Laboratoire PhLAM UMR 8523 / Villeneuve d'Ascq Cedex / FRANCE 2024-02-19 16:59:55
 SCM User ID: u10325
  
 AMS 2023.104  RunTime: Jun19-2024 11:48:29  ShM Nodes: 4  Procs: 16

 AMS jobname: pao_cl3_3h2o.pbe0.tz2p.opt-freq-solvation
 AMS jobid  : 1864385088

 Start   directory: /home/shaaban/ams/PhD/geometries-exafs/pao-chloride/pao_cl3_3h2o/PBE0/
 Results directory: /home/shaaban/ams/PhD/geometries-exafs/pao-chloride/pao_cl3_3h2o/PBE0/pao_cl3_3h2o.pbe0.tz2p.opt-freq-solvation.results/
 Scratch directory: /state/partition2/shaaban/1021010.phlam-s-sakura/amstmp_pao_cl3_3h2o.pbe0.tz2p.opt-freq-solvation_kid0.1864385088/


 Communication costs MPI_COMM_WORLD:     -1.481 usec per message,   0.0445 usec per 8-byte item
 Communication costs for intra-node:      0.487 usec per message,   0.0084 usec per 8-byte item

 RNG seed: 621513081 1558395199 -692099611 1284736980 496531301 1259547413 969506525 -1272374053



                     *************************************************************************
                     *  ADF 2023.104  RunTime: Jun19-2024 11:48:31  ShM Nodes: 4  Procs: 16  *
                     *************************************************************************
  

       ***************************
       *  GEOMETRY OPTIMIZATION  *
       ***************************

Optimization Method                    Quasi Newton
Optimization Coordinates               Delocalized Coordinates
Optimize lattice                       F
 
 ------------------------------------------------------
 Convergence criteria (Hartree,Angstrom)
 ------------------------------------------------------
 Maximum gradient               0.000100000000
 Maximum rms gradient           0.000066666667
 Maximum step allowed           0.001000000000
 Maximum rms step allowed       0.000666666667
 Maximum energy change allowe   0.000014000000
 Maximum stress energy allowe   0.000500000000
 
Initial model Hessian                  Automatic Hessian
 
------------------------------------
Quasi-Newton Optimizer Parameters
------------------------------------
Hessian Update Method                  BFGS
Maximum number of steps                  250
First GDIIS cycle                          0
Maximum GDIIS vectors                      0
Trust radius (bohr)                        0.200000
Trust radius varies                        T
Constraints converged at all steps         T
Use projector                              T
 
 Rigid motions settings for: old optimizer
 Atomic rotations (x,y,z):     T T T
 Atomic translations (x,y,z):  T T T
 Tolerance:                   1.000000000000000E-006
 
--------
Geometry
--------
Formula: H6Cl3O4Pa
Atoms
  Index Symbol   x (angstrom)   y (angstrom)   z (angstrom)
      1     Pa    -0.40580854    -0.70132562     0.39387018       adf.R=2.200
      2      O    -0.69177279     1.02608919    -0.12152742       adf.R=1.517
      3     Cl    -0.62589118    -2.66027506     2.19345607       adf.R=1.725
      4     Cl     2.05958658    -0.23684325     1.19567306       adf.R=1.725
      5     Cl    -2.65148439    -1.61795976    -0.63295598       adf.R=1.725
      6      O     0.40680486    -0.67359640    -1.93917373       adf.R=1.517
      7      O    -1.40621949     0.24534094     2.38960066       adf.R=1.517
      8      H     0.55240116    -1.44410593    -2.49955819       adf.R=1.350
      9      H     0.21991551     0.07609470    -2.51476698       adf.R=1.350
     10      H    -1.73965056     1.14768504     2.45156385       adf.R=1.350
     11      H    -1.68478622    -0.23987773     3.17429376       adf.R=1.350
     12      O     0.72252825    -2.83997423    -0.52444183       adf.R=1.517
     13      H     0.54932237    -3.59766172     0.04931731       adf.R=1.350
     14      H     1.68075664    -2.82339275    -0.64371023       adf.R=1.350
 
Total System Charge             0.00000
Bonding info available!
 
 
----------------
ADF Engine Input
----------------
 
 Basis
 Type TZ2P
 Core None
 End
 XC
 Hybrid PBE0
 End
 Solvation
 Surf Delley
 Solv name=Water cav0=0.0 cav1=0.0067639
 Charged method=CONJ
 C-Mat POT
 SCF VAR ALL
 CSMRSP
 End
 NumericalQuality Good
 

 Title: *** (NO TITLE) ***

 Using automatic Hessian for delocalized coordinates.
 *** GO1_GOStep1 ***

 SOLVATION
-------------------------------------------

  The Delley construction of COSMO surface surface is calculated

       Division Level for Surface Triangles (NDIV)                  3
       Final Division Level for Triangles (NFDIV)                   1
       Radius of the Solvent (RSOL)                           1.93000 angstr
  Dielectric Constant (EPSL)                                 78.39000

       COSMO equation is solved iteratively-               conjugate-gradient

       Maximun of Iterations for Charges (NCIX)                  1000
       Criterion for Charge convergence (CCNV)                1.0E-08

  COSMO charges included variationally in SCF

       COSMO included at every SCF cycle

  Geometry-dependent empirical factor                         0.00000

  C-Matrix calculated in cspmtx

  In cspmtx, C-Matrix calculated using fitted potential

-------------------------------------------



 -------------------------------------------
  COSMO surface
  Area             =          634.193
  Volume           =         1165.734
  Number of Points =         1493
 -------------------------------------------



 ======================
 RI Hartree-Fock Scheme
 ======================
  
 Fit Set Quality     : GOOD
 Threshold Quality   : GOOD
 Integration Quality : GOOD
 Fit Generation Method : AUTO
 Response Quality    : DEFAULT
 Is Range Separated  :  F
 
 RIHartreeFock Dependency: number of modified vectors:           9
 cosmo_calcen: 0.5 (esolb+esolc) (Hartrees) =   -0.053343

 Solvation energy (screening term,uncorrected) =    -33.472961 kcal/mol

 Solvation energy (dispersion and cavitation terms) =      1.185891 kcal/mol
 Solvation Energy Contributions (Hartrees)
          esola   esolb+esolc
     0.05334255   -0.10668510
 esol last cycle   -0.05334255
  
 Hartree-Fock exchange energy:   -584.435317735864     
 cosmo_calcen: 0.5 (esolb+esolc) (Hartrees) =   -0.053343

 Solvation energy (screening term,uncorrected) =    -33.472944 kcal/mol

 Solvation energy (dispersion and cavitation terms) =      1.185891 kcal/mol
 Solvation Energy Contributions (Hartrees)
          esola   esolb+esolc
     0.05334253   -0.10668505
 esol last cycle   -0.05334253

 Energy gradients wrt nuclear displacements
 ==========================================

     Atom      Cartesian (a.u./angstrom)
                 X         Y         Z
 ----------------------------------------
     1 Pa    0.000100 -0.002419  0.001582
     2 O    -0.000049  0.001124 -0.000717
     3 Cl   -0.000054  0.000090 -0.000042
     4 Cl   -0.000062  0.000311 -0.000209
     5 Cl   -0.000031 -0.000377  0.000028
     6 O    -0.000243  0.000323  0.003406
     7 O     0.002552 -0.001234 -0.002336
     8 H     0.000804 -0.000748 -0.000288
     9 H    -0.000619  0.000248 -0.000732
    10 H    -0.000383  0.000957 -0.000010
    11 H    -0.000977 -0.000039  0.000400
    12 O    -0.001828  0.002303 -0.002036
    13 H    -0.000119 -0.000608  0.000425
    14 H     0.000910  0.000068  0.000528
 ----------------------------------------
 Mulliken charges used for AMS results%charges...
 
----------------------------------------------------------------------
Geometry Convergence after Step   1       (Hartree/Angstrom,Angstrom)
----------------------------------------------------------------------
current energy                               -3.53981478 Hartree
energy change                      -3.53981478     0.00001400    F
constrained gradient max            0.00340326     0.00010000    F
constrained gradient rms            0.00114028     0.00006667    F
gradient max                        0.00340326
gradient rms                        0.00114028
cart. step max                      0.01231960     0.00100000    F
cart. step rms                      0.00452681     0.00066667    F
 
 
--------
Geometry
--------
Formula: H6Cl3O4Pa
Atoms
  Index Symbol   x (angstrom)   y (angstrom)   z (angstrom)
      1     Pa    -0.40564773    -0.70030374     0.39079925       adf.R=2.200
      2      O    -0.68935755     1.02737178    -0.12295169       adf.R=1.517
      3     Cl    -0.62941851    -2.66002073     2.18917151       adf.R=1.725
      4     Cl     2.05962706    -0.24043328     1.19573917       adf.R=1.725
      5     Cl    -2.65204452    -1.61258944    -0.63811568       adf.R=1.725
      6      O     0.40293859    -0.67138003    -1.94504180       adf.R=1.517
      7      O    -1.40706611     0.24323731     2.38905310       adf.R=1.517
      8      H     0.54101306    -1.44072441    -2.50813262       adf.R=1.350
      9      H     0.22059098     0.08148711    -2.51729081       adf.R=1.350
     10      H    -1.74152561     1.14446342     2.45341761       adf.R=1.350
     11      H    -1.67911666    -0.24322320     3.17487020       adf.R=1.350
     12      O     0.72693514    -2.84305511    -0.51528147       adf.R=1.517
     13      H     0.55424320    -3.59795494     0.06163691       adf.R=1.350
     14      H     1.68453088    -2.82667735    -0.63623314       adf.R=1.350
 
Total System Charge             0.00000
Bonding info available!
 
 *** GO1_GOStep2 ***

 SOLVATION
-------------------------------------------

  The Delley construction of COSMO surface surface is calculated

       Division Level for Surface Triangles (NDIV)                  3
       Final Division Level for Triangles (NFDIV)                   1
       Radius of the Solvent (RSOL)                           1.93000 angstr
  Dielectric Constant (EPSL)                                 78.39000

       COSMO equation is solved iteratively-               conjugate-gradient

       Maximun of Iterations for Charges (NCIX)                  1000
       Criterion for Charge convergence (CCNV)                1.0E-08

  COSMO charges included variationally in SCF

       COSMO included at every SCF cycle

  Geometry-dependent empirical factor                         0.00000

  C-Matrix calculated in cspmtx

  In cspmtx, C-Matrix calculated using fitted potential

-------------------------------------------



 -------------------------------------------
  COSMO surface
  Area             =          637.013
  Volume           =         1171.110
  Number of Points =         1500
 -------------------------------------------



 ======================
 RI Hartree-Fock Scheme
 ======================
  
 Fit Set Quality     : GOOD
 Threshold Quality   : GOOD
 Integration Quality : GOOD
 Fit Generation Method : AUTO
 Response Quality    : DEFAULT
 Is Range Separated  :  F
 
 RIHartreeFock Dependency: number of modified vectors:           9
 cosmo_calcen: 0.5 (esolb+esolc) (Hartrees) =   -0.053209

 Solvation energy (screening term,uncorrected) =    -33.389133 kcal/mol

 Solvation energy (dispersion and cavitation terms) =      1.191164 kcal/mol
 Solvation Energy Contributions (Hartrees)
          esola   esolb+esolc
     0.05320897   -0.10641793
 esol last cycle   -0.05320897
  
 Hartree-Fock exchange energy:   -584.436512840310     
 cosmo_calcen: 0.5 (esolb+esolc) (Hartrees) =   -0.053209

 Solvation energy (screening term,uncorrected) =    -33.389127 kcal/mol

 Solvation energy (dispersion and cavitation terms) =      1.191164 kcal/mol
 Solvation Energy Contributions (Hartrees)
          esola   esolb+esolc
     0.05320896   -0.10641791
 esol last cycle   -0.05320896

 Energy gradients wrt nuclear displacements
 ==========================================

     Atom      Cartesian (a.u./angstrom)
                 X         Y         Z
 ----------------------------------------
     1 Pa   -0.000028 -0.001688  0.001221
     2 O     0.000024  0.000472 -0.000682
     3 Cl    0.000154  0.000173 -0.000337
     4 Cl   -0.000072  0.000168 -0.000206
     5 Cl    0.000003 -0.000298  0.000013
     6 O    -0.000393  0.000839  0.001904
     7 O     0.001807 -0.000580 -0.001415
     8 H     0.000503 -0.000034  0.000158
     9 H    -0.000367 -0.000246 -0.000236
    10 H    -0.000154  0.000066 -0.000139
    11 H    -0.000625  0.000187 -0.000038
    12 O    -0.001129  0.001153 -0.000904
    13 H     0.000030 -0.000207 -0.000051
    14 H     0.000247 -0.000005  0.000710
 ----------------------------------------
 Mulliken charges used for AMS results%charges...

 dE(predicted):    -0.30139E-04, dE(actual):    -0.62623E-04, Trust radius:    0.200000, all in a.u.
 
----------------------------------------------------------------------
Geometry Convergence after Step   2       (Hartree/Angstrom,Angstrom)
----------------------------------------------------------------------
current energy                               -3.53987740 Hartree
energy change                      -0.00006262     0.00001400    F
constrained gradient max            0.00190223     0.00010000    F
constrained gradient rms            0.00069816     0.00006667    F
gradient max                        0.00190223
gradient rms                        0.00069816
cart. step max                      0.02797230     0.00100000    F
cart. step rms                      0.00995759     0.00066667    F
 
 
--------
Geometry
--------
Formula: H6Cl3O4Pa
Atoms
  Index Symbol   x (angstrom)   y (angstrom)   z (angstrom)
      1     Pa    -0.40638689    -0.69664791     0.38482881       adf.R=2.200
      2      O    -0.68383151     1.03255061    -0.12309960       adf.R=1.517
      3     Cl    -0.64463246    -2.65701495     2.18146920       adf.R=1.725
      4     Cl     2.05782526    -0.24910010     1.20042372       adf.R=1.725
      5     Cl    -2.65490016    -1.59618368    -0.65018873       adf.R=1.725
      6      O     0.39524465    -0.67496194    -1.95736352       adf.R=1.517
      7      O    -1.41104989     0.23848925     2.38984165       adf.R=1.517
      8      H     0.51304076    -1.44395419    -2.52487357       adf.R=1.350
      9      H     0.22724008     0.08483505    -2.52428691       adf.R=1.350
     10      H    -1.74594968     1.13834912     2.46211954       adf.R=1.350
     11      H    -1.66622610    -0.25162386     3.17867866       adf.R=1.350
     12      O     0.73880281    -2.84452437    -0.49975446       adf.R=1.517
     13      H     0.57210823    -3.59370141     0.08550994       adf.R=1.350
     14      H     1.69441712    -2.82631422    -0.63166419       adf.R=1.350
 
Total System Charge             0.00000
Bonding info available!
 
 *** GO1_GOStep3 ***

 SOLVATION
-------------------------------------------

  The Delley construction of COSMO surface surface is calculated

       Division Level for Surface Triangles (NDIV)                  3
       Final Division Level for Triangles (NFDIV)                   1
       Radius of the Solvent (RSOL)                           1.93000 angstr
  Dielectric Constant (EPSL)                                 78.39000

       COSMO equation is solved iteratively-               conjugate-gradient

       Maximun of Iterations for Charges (NCIX)                  1000
       Criterion for Charge convergence (CCNV)                1.0E-08

  COSMO charges included variationally in SCF

       COSMO included at every SCF cycle

  Geometry-dependent empirical factor                         0.00000

  C-Matrix calculated in cspmtx

  In cspmtx, C-Matrix calculated using fitted potential

-------------------------------------------



 -------------------------------------------
  COSMO surface
  Area             =          636.516
  Volume           =         1170.668
  Number of Points =         1498
 -------------------------------------------



 ======================
 RI Hartree-Fock Scheme
 ======================
  
 Fit Set Quality     : GOOD
 Threshold Quality   : GOOD
 Integration Quality : GOOD
 Fit Generation Method : AUTO
 Response Quality    : DEFAULT
 Is Range Separated  :  F
 
 RIHartreeFock Dependency: number of modified vectors:           9
 cosmo_calcen: 0.5 (esolb+esolc) (Hartrees) =   -0.052958

 Solvation energy (screening term,uncorrected) =    -33.231824 kcal/mol

 Solvation energy (dispersion and cavitation terms) =      1.190235 kcal/mol
 Solvation Energy Contributions (Hartrees)
          esola   esolb+esolc
     0.05295828   -0.10591655
 esol last cycle   -0.05295828
  
 Hartree-Fock exchange energy:   -584.437297853775     
 cosmo_calcen: 0.5 (esolb+esolc) (Hartrees) =   -0.052958

 Solvation energy (screening term,uncorrected) =    -33.231818 kcal/mol

 Solvation energy (dispersion and cavitation terms) =      1.190235 kcal/mol
 Solvation Energy Contributions (Hartrees)
          esola   esolb+esolc
     0.05295827   -0.10591653
 esol last cycle   -0.05295827

 Energy gradients wrt nuclear displacements
 ==========================================

     Atom      Cartesian (a.u./angstrom)
                 X         Y         Z
 ----------------------------------------
     1 Pa   -0.000208  0.000163  0.000204
     2 O    -0.000059 -0.000778 -0.000273
     3 Cl    0.000243  0.000501 -0.000390
     4 Cl    0.000009 -0.000203 -0.000154
     5 Cl    0.000049 -0.000153 -0.000039
     6 O    -0.000456  0.001034 -0.000159
     7 O     0.000624  0.000036  0.000175
     8 H     0.000159  0.000477  0.000589
     9 H    -0.000078 -0.000489  0.000248
    10 H     0.000277 -0.000792 -0.000470
    11 H    -0.000339  0.000260 -0.000285
    12 O     0.000163 -0.000334  0.000421
    13 H     0.000035  0.000234 -0.000490
    14 H    -0.000419  0.000044  0.000623
 ----------------------------------------
 Mulliken charges used for AMS results%charges...

 dE(predicted):    -0.50255E-04, dE(actual):    -0.78219E-04, Trust radius:    0.200000, all in a.u.
 
----------------------------------------------------------------------
Geometry Convergence after Step   3       (Hartree/Angstrom,Angstrom)
----------------------------------------------------------------------
current energy                               -3.53995562 Hartree
energy change                      -0.00007822     0.00001400    F
constrained gradient max            0.00102573     0.00010000    F
constrained gradient rms            0.00038817     0.00006667    F
gradient max                        0.00102573
gradient rms                        0.00038817
cart. step max                      0.02040929     0.00100000    F
cart. step rms                      0.00752439     0.00066667    F
 
 
--------
Geometry
--------
Formula: H6Cl3O4Pa
Atoms
  Index Symbol   x (angstrom)   y (angstrom)   z (angstrom)
      1     Pa    -0.40738400    -0.69359951     0.38160092       adf.R=2.200
      2      O    -0.67942916     1.03762325    -0.12110457       adf.R=1.517
      3     Cl    -0.65792942    -2.65604824     2.17548263       adf.R=1.725
      4     Cl     2.05495254    -0.25262956     1.20682774       adf.R=1.725
      5     Cl    -2.65758062    -1.58287828    -0.65826284       adf.R=1.725
      6      O     0.39112582    -0.68243626    -1.96474105       adf.R=1.517
      7      O    -1.41539179     0.23604297     2.39103451       adf.R=1.517
      8      H     0.49263147    -1.45199161    -2.53480102       adf.R=1.350
      9      H     0.23559425     0.08192853    -2.52913836       adf.R=1.350
     10      H    -1.75076410     1.13523122     2.47067310       adf.R=1.350
     11      H    -1.65557022    -0.25688779     3.18269948       adf.R=1.350
     12      O     0.74696424    -2.84300490    -0.49220569       adf.R=1.517
     13      H     0.58776645    -3.58825254     0.10000444       adf.R=1.350
     14      H     1.70071676    -2.82289987    -0.63642875       adf.R=1.350
 
Total System Charge             0.00000
Bonding info available!
 
 *** GO1_GOStep4 ***

 SOLVATION
-------------------------------------------

  The Delley construction of COSMO surface surface is calculated

       Division Level for Surface Triangles (NDIV)                  3
       Final Division Level for Triangles (NFDIV)                   1
       Radius of the Solvent (RSOL)                           1.93000 angstr
  Dielectric Constant (EPSL)                                 78.39000

       COSMO equation is solved iteratively-               conjugate-gradient

       Maximun of Iterations for Charges (NCIX)                  1000
       Criterion for Charge convergence (CCNV)                1.0E-08

  COSMO charges included variationally in SCF

       COSMO included at every SCF cycle

  Geometry-dependent empirical factor                         0.00000

  C-Matrix calculated in cspmtx

  In cspmtx, C-Matrix calculated using fitted potential

-------------------------------------------



 -------------------------------------------
  COSMO surface
  Area             =          635.548
  Volume           =         1169.321
  Number of Points =         1493
 -------------------------------------------



 ======================
 RI Hartree-Fock Scheme
 ======================
  
 Fit Set Quality     : GOOD
 Threshold Quality   : GOOD
 Integration Quality : GOOD
 Fit Generation Method : AUTO
 Response Quality    : DEFAULT
 Is Range Separated  :  F
 
 RIHartreeFock Dependency: number of modified vectors:           9
 cosmo_calcen: 0.5 (esolb+esolc) (Hartrees) =   -0.052853

 Solvation energy (screening term,uncorrected) =    -33.165905 kcal/mol

 Solvation energy (dispersion and cavitation terms) =      1.188425 kcal/mol
 Solvation Energy Contributions (Hartrees)
          esola   esolb+esolc
     0.05285323   -0.10570646
 esol last cycle   -0.05285323
  
 Hartree-Fock exchange energy:   -584.436348262467     
 cosmo_calcen: 0.5 (esolb+esolc) (Hartrees) =   -0.052853

 Solvation energy (screening term,uncorrected) =    -33.165902 kcal/mol

 Solvation energy (dispersion and cavitation terms) =      1.188425 kcal/mol
 Solvation Energy Contributions (Hartrees)
          esola   esolb+esolc
     0.05285322   -0.10570645
 esol last cycle   -0.05285322

 Energy gradients wrt nuclear displacements
 ==========================================

     Atom      Cartesian (a.u./angstrom)
                 X         Y         Z
 ----------------------------------------
     1 Pa   -0.000209  0.000966 -0.000147
     2 O    -0.000220 -0.000776  0.000039
     3 Cl    0.000090  0.000557 -0.000233
     4 Cl    0.000065 -0.000491 -0.000177
     5 Cl    0.000022 -0.000118 -0.000119
     6 O    -0.000426  0.000697 -0.000833
     7 O     0.000220 -0.000189  0.001036
     8 H     0.000054  0.000289  0.000411
     9 H     0.000116 -0.000285  0.000327
    10 H     0.000093 -0.000481 -0.000528
    11 H    -0.000065  0.000188 -0.000344
    12 O     0.000703 -0.000699  0.000598
    13 H    -0.000204  0.000283 -0.000568
    14 H    -0.000239  0.000057  0.000539
 ----------------------------------------
 Mulliken charges used for AMS results%charges...

 dE(predicted):    -0.22022E-04, dE(actual):    -0.22989E-04, Trust radius:    0.200000, all in a.u.
 
----------------------------------------------------------------------
Geometry Convergence after Step   4       (Hartree/Angstrom,Angstrom)
----------------------------------------------------------------------
current energy                               -3.53997861 Hartree
energy change                      -0.00002299     0.00001400    F
constrained gradient max            0.00103283     0.00010000    F
constrained gradient rms            0.00043944     0.00006667    F
gradient max                        0.00103283
gradient rms                        0.00043944
cart. step max                      0.01379530     0.00100000    F
cart. step rms                      0.00581739     0.00066667    F
 
 
--------
Geometry
--------
Formula: H6Cl3O4Pa
Atoms
  Index Symbol   x (angstrom)   y (angstrom)   z (angstrom)
      1     Pa    -0.40811277    -0.69174282     0.38052188       adf.R=2.200
      2      O    -0.67593461     1.04119403    -0.11865138       adf.R=1.517
      3     Cl    -0.66628199    -2.65739379     2.17114278       adf.R=1.725
      4     Cl     2.05122807    -0.25029992     1.21483839       adf.R=1.725
      5     Cl    -2.65973405    -1.57336533    -0.66236863       adf.R=1.725
      6      O     0.39060163    -0.69039618    -1.96786018       adf.R=1.517
      7      O    -1.42022381     0.23548743     2.39158343       adf.R=1.517
      8      H     0.48007821    -1.46058304    -2.53935415       adf.R=1.350
      9      H     0.24397965     0.07656239    -2.53140780       adf.R=1.350
     10      H    -1.75406507     1.13481327     2.47795336       adf.R=1.350
     11      H    -1.64890942    -0.25918703     3.18566864       adf.R=1.350
     12      O     0.75016635    -2.84164455    -0.48993983       adf.R=1.517
     13      H     0.60156175    -3.58337110     0.10967720       adf.R=1.350
     14      H     1.70134830    -2.81987596    -0.65016316       adf.R=1.350
 
Total System Charge             0.00000
Bonding info available!
 
 *** GO1_GOStep5 ***

 SOLVATION
-------------------------------------------

  The Delley construction of COSMO surface surface is calculated

       Division Level for Surface Triangles (NDIV)                  3
       Final Division Level for Triangles (NFDIV)                   1
       Radius of the Solvent (RSOL)                           1.93000 angstr
  Dielectric Constant (EPSL)                                 78.39000

       COSMO equation is solved iteratively-               conjugate-gradient

       Maximun of Iterations for Charges (NCIX)                  1000
       Criterion for Charge convergence (CCNV)                1.0E-08

  COSMO charges included variationally in SCF

       COSMO included at every SCF cycle

  Geometry-dependent empirical factor                         0.00000

  C-Matrix calculated in cspmtx

  In cspmtx, C-Matrix calculated using fitted potential

-------------------------------------------



 -------------------------------------------
  COSMO surface
  Area             =          635.022
  Volume           =         1168.365
  Number of Points =         1488
 -------------------------------------------



 ======================
 RI Hartree-Fock Scheme
 ======================
  
 Fit Set Quality     : GOOD
 Threshold Quality   : GOOD
 Integration Quality : GOOD
 Fit Generation Method : AUTO
 Response Quality    : DEFAULT
 Is Range Separated  :  F
 
 RIHartreeFock Dependency: number of modified vectors:           9
 cosmo_calcen: 0.5 (esolb+esolc) (Hartrees) =   -0.052919

 Solvation energy (screening term,uncorrected) =    -33.206943 kcal/mol

 Solvation energy (dispersion and cavitation terms) =      1.187442 kcal/mol
 Solvation Energy Contributions (Hartrees)
          esola   esolb+esolc
     0.05291863   -0.10583725
 esol last cycle   -0.05291863
  
 Hartree-Fock exchange energy:   -584.434971298674     
 cosmo_calcen: 0.5 (esolb+esolc) (Hartrees) =   -0.052919

 Solvation energy (screening term,uncorrected) =    -33.206941 kcal/mol

 Solvation energy (dispersion and cavitation terms) =      1.187442 kcal/mol
 Solvation Energy Contributions (Hartrees)
          esola   esolb+esolc
     0.05291862   -0.10583725
 esol last cycle   -0.05291862

 Energy gradients wrt nuclear displacements
 ==========================================

     Atom      Cartesian (a.u./angstrom)
                 X         Y         Z
 ----------------------------------------
     1 Pa   -0.000271  0.000862 -0.000382
     2 O    -0.000370 -0.000312  0.000307
     3 Cl   -0.000046  0.000360  0.000036
     4 Cl    0.000230 -0.000353 -0.000097
     5 Cl    0.000014 -0.000133 -0.000155
     6 O    -0.000304  0.000112 -0.000875
     7 O     0.000115 -0.000093  0.001183
     8 H     0.000083  0.000072  0.000126
     9 H     0.000169 -0.000034  0.000242
    10 H    -0.000134 -0.000114 -0.000445
    11 H     0.000041  0.000027 -0.000157
    12 O     0.000923 -0.000517  0.000111
    13 H    -0.000392  0.000039 -0.000350
    14 H    -0.000058  0.000082  0.000455
 ----------------------------------------
 Mulliken charges used for AMS results%charges...

 dE(predicted):    -0.14705E-04, dE(actual):    -0.26410E-04, Trust radius:    0.200000, all in a.u.
 
----------------------------------------------------------------------
Geometry Convergence after Step   5       (Hartree/Angstrom,Angstrom)
----------------------------------------------------------------------
current energy                               -3.54000502 Hartree
energy change                      -0.00002641     0.00001400    F
constrained gradient max            0.00118170     0.00010000    F
constrained gradient rms            0.00037589     0.00006667    F
gradient max                        0.00118170
gradient rms                        0.00037589
cart. step max                      0.03084936     0.00100000    F
cart. step rms                      0.00995631     0.00066667    F
 
 
--------
Geometry
--------
Formula: H6Cl3O4Pa
Atoms
  Index Symbol   x (angstrom)   y (angstrom)   z (angstrom)
      1     Pa    -0.40885565    -0.68937236     0.37968973       adf.R=2.200
      2      O    -0.66889453     1.04581557    -0.11610600       adf.R=1.517
      3     Cl    -0.67684750    -2.66150185     2.16388823       adf.R=1.725
      4     Cl     2.04420982    -0.24375851     1.23016332       adf.R=1.725
      5     Cl    -2.66341249    -1.55861618    -0.66640240       adf.R=1.725
      6      O     0.39198253    -0.70283337    -1.97069567       adf.R=1.517
      7      O    -1.42951859     0.23507752     2.39118661       adf.R=1.517
      8      H     0.46218207    -1.47382128    -2.54413350       adf.R=1.350
      9      H     0.25724680     0.06714119    -2.53360673       adf.R=1.350
     10      H    -1.75774915     1.13541994     2.48964623       adf.R=1.350
     11      H    -1.64110395    -0.26201735     3.18866610       adf.R=1.350
     12      O     0.75215451    -2.84061821    -0.48730549       adf.R=1.517
     13      H     0.62720143    -3.57438093     0.12766263       adf.R=1.350
     14      H     1.69710693    -2.81633676    -0.68101252       adf.R=1.350
 
Total System Charge             0.00000
Bonding info available!
 
 *** GO1_GOStep6 ***

 SOLVATION
-------------------------------------------

  The Delley construction of COSMO surface surface is calculated

       Division Level for Surface Triangles (NDIV)                  3
       Final Division Level for Triangles (NFDIV)                   1
       Radius of the Solvent (RSOL)                           1.93000 angstr
  Dielectric Constant (EPSL)                                 78.39000

       COSMO equation is solved iteratively-               conjugate-gradient

       Maximun of Iterations for Charges (NCIX)                  1000
       Criterion for Charge convergence (CCNV)                1.0E-08

  COSMO charges included variationally in SCF

       COSMO included at every SCF cycle

  Geometry-dependent empirical factor                         0.00000

  C-Matrix calculated in cspmtx

  In cspmtx, C-Matrix calculated using fitted potential

-------------------------------------------



 -------------------------------------------
  COSMO surface
  Area             =          634.227
  Volume           =         1167.596
  Number of Points =         1489
 -------------------------------------------



 ======================
 RI Hartree-Fock Scheme
 ======================
  
 Fit Set Quality     : GOOD
 Threshold Quality   : GOOD
 Integration Quality : GOOD
 Fit Generation Method : AUTO
 Response Quality    : DEFAULT
 Is Range Separated  :  F
 
 RIHartreeFock Dependency: number of modified vectors:           9
 cosmo_calcen: 0.5 (esolb+esolc) (Hartrees) =   -0.053145

 Solvation energy (screening term,uncorrected) =    -33.349261 kcal/mol

 Solvation energy (dispersion and cavitation terms) =      1.185955 kcal/mol
 Solvation Energy Contributions (Hartrees)
          esola   esolb+esolc
     0.05314542   -0.10629085
 esol last cycle   -0.05314542
  
 Hartree-Fock exchange energy:   -584.433103134788     
 cosmo_calcen: 0.5 (esolb+esolc) (Hartrees) =   -0.053145

 Solvation energy (screening term,uncorrected) =    -33.349260 kcal/mol

 Solvation energy (dispersion and cavitation terms) =      1.185955 kcal/mol
 Solvation Energy Contributions (Hartrees)
          esola   esolb+esolc
     0.05314542   -0.10629085
 esol last cycle   -0.05314542

 Energy gradients wrt nuclear displacements
 ==========================================

     Atom      Cartesian (a.u./angstrom)
                 X         Y         Z
 ----------------------------------------
     1 Pa   -0.000165  0.000721 -0.000599
     2 O    -0.000519  0.000431  0.000611
     3 Cl   -0.000224 -0.000103  0.000360
     4 Cl    0.000344 -0.000207 -0.000060
     5 Cl    0.000029 -0.000166 -0.000155
     6 O    -0.000024 -0.000757 -0.000641
     7 O    -0.000135  0.000279  0.001168
     8 H     0.000086 -0.000139 -0.000258
     9 H     0.000204  0.000293 -0.000024
    10 H    -0.000554  0.000234 -0.000163
    11 H     0.000343 -0.000136  0.000090
    12 O     0.000842 -0.000278 -0.000679
    13 H    -0.000476 -0.000186 -0.000013
    14 H     0.000250  0.000016  0.000363
 ----------------------------------------
 Mulliken charges used for AMS results%charges...

 dE(predicted):    -0.21882E-04, dE(actual):    -0.33990E-04, Trust radius:    0.400000, all in a.u.
 
----------------------------------------------------------------------
Geometry Convergence after Step   6       (Hartree/Angstrom,Angstrom)
----------------------------------------------------------------------
current energy                               -3.54003901 Hartree
energy change                      -0.00003399     0.00001400    F
constrained gradient max            0.00116512     0.00010000    F
constrained gradient rms            0.00040937     0.00006667    F
gradient max                        0.00116512
gradient rms                        0.00040937
cart. step max                      0.03001331     0.00100000    F
cart. step rms                      0.00773081     0.00066667    F
 
 
--------
Geometry
--------
Formula: H6Cl3O4Pa
Atoms
  Index Symbol   x (angstrom)   y (angstrom)   z (angstrom)
      1     Pa    -0.40895801    -0.68902367     0.38025638       adf.R=2.200
      2      O    -0.66265513     1.04691526    -0.11640730       adf.R=1.517
      3     Cl    -0.68030317    -2.66579180     2.16004087       adf.R=1.725
      4     Cl     2.03816655    -0.23604611     1.24336491       adf.R=1.725
      5     Cl    -2.66623389    -1.54996179    -0.66613420       adf.R=1.725
      6      O     0.39515679    -0.71024517    -1.96995464       adf.R=1.517
      7      O    -1.43688424     0.23517042     2.38936671       adf.R=1.517
      8      H     0.45336445    -1.48163375    -2.54436594       adf.R=1.350
      9      H     0.26489590     0.06068674    -2.53290035       adf.R=1.350
     10      H    -1.75576116     1.13788118     2.49694267       adf.R=1.350
     11      H    -1.64168013    -0.26320741     3.18799263       adf.R=1.350
     12      O     0.75018222    -2.84138010    -0.48672429       adf.R=1.517
     13      H     0.64804659    -3.56786692     0.14118892       adf.R=1.350
     14      H     1.68836545    -2.81529948    -0.71102584       adf.R=1.350
 
Total System Charge             0.00000
Bonding info available!
 
 *** GO1_GOStep7 ***

 SOLVATION
-------------------------------------------

  The Delley construction of COSMO surface surface is calculated

       Division Level for Surface Triangles (NDIV)                  3
       Final Division Level for Triangles (NFDIV)                   1
       Radius of the Solvent (RSOL)                           1.93000 angstr
  Dielectric Constant (EPSL)                                 78.39000

       COSMO equation is solved iteratively-               conjugate-gradient

       Maximun of Iterations for Charges (NCIX)                  1000
       Criterion for Charge convergence (CCNV)                1.0E-08

  COSMO charges included variationally in SCF

       COSMO included at every SCF cycle

  Geometry-dependent empirical factor                         0.00000

  C-Matrix calculated in cspmtx

  In cspmtx, C-Matrix calculated using fitted potential

-------------------------------------------



 -------------------------------------------
  COSMO surface
  Area             =          634.593
  Volume           =         1167.729
  Number of Points =         1494
 -------------------------------------------



 ======================
 RI Hartree-Fock Scheme
 ======================
  
 Fit Set Quality     : GOOD
 Threshold Quality   : GOOD
 Integration Quality : GOOD
 Fit Generation Method : AUTO
 Response Quality    : DEFAULT
 Is Range Separated  :  F
 
 RIHartreeFock Dependency: number of modified vectors:           9
 cosmo_calcen: 0.5 (esolb+esolc) (Hartrees) =   -0.053437

 Solvation energy (screening term,uncorrected) =    -33.532139 kcal/mol

 Solvation energy (dispersion and cavitation terms) =      1.186639 kcal/mol
 Solvation Energy Contributions (Hartrees)
          esola   esolb+esolc
     0.05343686   -0.10687372
 esol last cycle   -0.05343686
  
 Hartree-Fock exchange energy:   -584.432307711130     
 cosmo_calcen: 0.5 (esolb+esolc) (Hartrees) =   -0.053437

 Solvation energy (screening term,uncorrected) =    -33.532138 kcal/mol

 Solvation energy (dispersion and cavitation terms) =      1.186639 kcal/mol
 Solvation Energy Contributions (Hartrees)
          esola   esolb+esolc
     0.05343686   -0.10687372
 esol last cycle   -0.05343686

 Energy gradients wrt nuclear displacements
 ==========================================

     Atom      Cartesian (a.u./angstrom)
                 X         Y         Z
 ----------------------------------------
     1 Pa   -0.000117  0.000484 -0.000652
     2 O    -0.000465  0.000799  0.000691
     3 Cl   -0.000285 -0.000499  0.000507
     4 Cl    0.000333  0.000009 -0.000046
     5 Cl    0.000051 -0.000175 -0.000123
     6 O     0.000100 -0.001092 -0.000265
     7 O    -0.000179  0.000686  0.000797
     8 H     0.000101 -0.000253 -0.000324
     9 H     0.000188  0.000380 -0.000241
    10 H    -0.000637  0.000322  0.000146
    11 H     0.000297 -0.000235  0.000285
    12 O     0.000473 -0.000121 -0.001278
    13 H    -0.000346 -0.000305  0.000261
    14 H     0.000485  0.000001  0.000242
 ----------------------------------------
 Mulliken charges used for AMS results%charges...

 dE(predicted):    -0.16524E-04, dE(actual):    -0.17355E-04, Trust radius:    0.400000, all in a.u.
 
----------------------------------------------------------------------
Geometry Convergence after Step   7       (Hartree/Angstrom,Angstrom)
----------------------------------------------------------------------
current energy                               -3.54005637 Hartree
energy change                      -0.00001735     0.00001400    F
constrained gradient max            0.00127361     0.00010000    F
constrained gradient rms            0.00045717     0.00006667    F
gradient max                        0.00127361
gradient rms                        0.00045717
cart. step max                      0.03645373     0.00100000    F
cart. step rms                      0.00907515     0.00066667    F
 
 
--------
Geometry
--------
Formula: H6Cl3O4Pa
Atoms
  Index Symbol   x (angstrom)   y (angstrom)   z (angstrom)
      1     Pa    -0.40819336    -0.69027859     0.38140260       adf.R=2.200
      2      O    -0.65435900     1.04506649    -0.12083914       adf.R=1.517
      3     Cl    -0.67885943    -2.67018517     2.15830167       adf.R=1.725
      4     Cl     2.03124900    -0.22645701     1.25918311       adf.R=1.725
      5     Cl    -2.66922409    -1.54319659    -0.66263790       adf.R=1.725
      6      O     0.40020985    -0.71411621    -1.96726301       adf.R=1.517
      7      O    -1.44495622     0.23462036     2.38501723       adf.R=1.517
      8      H     0.44741431    -1.48505127    -2.54338903       adf.R=1.350
      9      H     0.26918466     0.05733992    -2.52943627       adf.R=1.350
     10      H    -1.74856234     1.14137500     2.50199397       adf.R=1.350
     11      H    -1.64833095    -0.26455616     3.18359945       adf.R=1.350
     12      O     0.74502188    -2.84488582    -0.48489693       adf.R=1.517
     13      H     0.67197106    -3.56166483     0.15808437       adf.R=1.350
     14      H     1.67313685    -2.81781268    -0.74747957       adf.R=1.350
 
Total System Charge             0.00000
Bonding info available!
 
 *** GO1_GOStep8 ***

 SOLVATION
-------------------------------------------

  The Delley construction of COSMO surface surface is calculated

       Division Level for Surface Triangles (NDIV)                  3
       Final Division Level for Triangles (NFDIV)                   1
       Radius of the Solvent (RSOL)                           1.93000 angstr
  Dielectric Constant (EPSL)                                 78.39000

       COSMO equation is solved iteratively-               conjugate-gradient

       Maximun of Iterations for Charges (NCIX)                  1000
       Criterion for Charge convergence (CCNV)                1.0E-08

  COSMO charges included variationally in SCF

       COSMO included at every SCF cycle

  Geometry-dependent empirical factor                         0.00000

  C-Matrix calculated in cspmtx

  In cspmtx, C-Matrix calculated using fitted potential

-------------------------------------------



 -------------------------------------------
  COSMO surface
  Area             =          635.598
  Volume           =         1169.474
  Number of Points =         1501
 -------------------------------------------



 ======================
 RI Hartree-Fock Scheme
 ======================
  
 Fit Set Quality     : GOOD
 Threshold Quality   : GOOD
 Integration Quality : GOOD
 Fit Generation Method : AUTO
 Response Quality    : DEFAULT
 Is Range Separated  :  F
 
 RIHartreeFock Dependency: number of modified vectors:           9
 cosmo_calcen: 0.5 (esolb+esolc) (Hartrees) =   -0.053864

 Solvation energy (screening term,uncorrected) =    -33.800014 kcal/mol

 Solvation energy (dispersion and cavitation terms) =      1.188519 kcal/mol
 Solvation Energy Contributions (Hartrees)
          esola   esolb+esolc
     0.05386375   -0.10772749
 esol last cycle   -0.05386375
  
 Hartree-Fock exchange energy:   -584.432522219791     
 cosmo_calcen: 0.5 (esolb+esolc) (Hartrees) =   -0.053864

 Solvation energy (screening term,uncorrected) =    -33.800013 kcal/mol

 Solvation energy (dispersion and cavitation terms) =      1.188519 kcal/mol
 Solvation Energy Contributions (Hartrees)
          esola   esolb+esolc
     0.05386374   -0.10772749
 esol last cycle   -0.05386374

 Energy gradients wrt nuclear displacements
 ==========================================

     Atom      Cartesian (a.u./angstrom)
                 X         Y         Z
 ----------------------------------------
     1 Pa   -0.000047  0.000366 -0.000671
     2 O    -0.000233  0.000696  0.000499
     3 Cl   -0.000229 -0.000793  0.000461
     4 Cl    0.000140  0.000260 -0.000064
     5 Cl    0.000127 -0.000152 -0.000014
     6 O     0.000120 -0.000739  0.000259
     7 O    -0.000141  0.000989  0.000372
     8 H     0.000137 -0.000296 -0.000237
     9 H     0.000158  0.000238 -0.000434
    10 H    -0.000587  0.000217  0.000437
    11 H     0.000167 -0.000231  0.000334
    12 O    -0.000003 -0.000319 -0.001596
    13 H    -0.000073 -0.000241  0.000381
    14 H     0.000462  0.000004  0.000272
 ----------------------------------------
 Mulliken charges used for AMS results%charges...

 dE(predicted):    -0.22322E-04, dE(actual):    -0.32930E-04, Trust radius:    0.400000, all in a.u.
 
----------------------------------------------------------------------
Geometry Convergence after Step   8       (Hartree/Angstrom,Angstrom)
----------------------------------------------------------------------
current energy                               -3.54008930 Hartree
energy change                      -0.00003293     0.00001400    F
constrained gradient max            0.00159472     0.00010000    F
constrained gradient rms            0.00045008     0.00006667    F
gradient max                        0.00159472
gradient rms                        0.00045008
cart. step max                      0.04416351     0.00100000    F
cart. step rms                      0.01203365     0.00066667    F
 
 
--------
Geometry
--------
Formula: H6Cl3O4Pa
Atoms
  Index Symbol   x (angstrom)   y (angstrom)   z (angstrom)
      1     Pa    -0.40667984    -0.69265446     0.38215621       adf.R=2.200
      2      O    -0.64172844     1.04141868    -0.12876046       adf.R=1.517
      3     Cl    -0.67732608    -2.67342593     2.15787108       adf.R=1.725
      4     Cl     2.02265842    -0.21881176     1.28083721       adf.R=1.725
      5     Cl    -2.67322847    -1.53345798    -0.65893687       adf.R=1.725
      6      O     0.40496707    -0.71666273    -1.96523496       adf.R=1.517
      7      O    -1.45523292     0.23229279     2.37767933       adf.R=1.517
      8      H     0.43567518    -1.48529489    -2.54545842       adf.R=1.350
      9      H     0.27094234     0.05690060    -2.52368565       adf.R=1.350
     10      H    -1.73666235     1.14449810     2.50577554       adf.R=1.350
     11      H    -1.65848347    -0.26748169     3.17584937       adf.R=1.350
     12      O     0.74109816    -2.85027103    -0.47795221       adf.R=1.517
     13      H     0.70665636    -3.55314093     0.18314345       adf.R=1.350
     14      H     1.65304627    -2.82371138    -0.79164308       adf.R=1.350
 
Total System Charge             0.00000
Bonding info available!
 
 *** GO1_GOStep9 ***

 SOLVATION
-------------------------------------------

  The Delley construction of COSMO surface surface is calculated

       Division Level for Surface Triangles (NDIV)                  3
       Final Division Level for Triangles (NFDIV)                   1
       Radius of the Solvent (RSOL)                           1.93000 angstr
  Dielectric Constant (EPSL)                                 78.39000

       COSMO equation is solved iteratively-               conjugate-gradient

       Maximun of Iterations for Charges (NCIX)                  1000
       Criterion for Charge convergence (CCNV)                1.0E-08

  COSMO charges included variationally in SCF

       COSMO included at every SCF cycle

  Geometry-dependent empirical factor                         0.00000

  C-Matrix calculated in cspmtx

  In cspmtx, C-Matrix calculated using fitted potential

-------------------------------------------



 -------------------------------------------
  COSMO surface
  Area             =          633.830
  Volume           =         1167.038
  Number of Points =         1498
 -------------------------------------------



 ======================
 RI Hartree-Fock Scheme
 ======================
  
 Fit Set Quality     : GOOD
 Threshold Quality   : GOOD
 Integration Quality : GOOD
 Fit Generation Method : AUTO
 Response Quality    : DEFAULT
 Is Range Separated  :  F
 
 RIHartreeFock Dependency: number of modified vectors:           9
 cosmo_calcen: 0.5 (esolb+esolc) (Hartrees) =   -0.054379

 Solvation energy (screening term,uncorrected) =    -34.123341 kcal/mol

 Solvation energy (dispersion and cavitation terms) =      1.185214 kcal/mol
 Solvation Energy Contributions (Hartrees)
          esola   esolb+esolc
     0.05437900   -0.10875800
 esol last cycle   -0.05437900
  
 Hartree-Fock exchange energy:   -584.433712240992     
 cosmo_calcen: 0.5 (esolb+esolc) (Hartrees) =   -0.054379

 Solvation energy (screening term,uncorrected) =    -34.123341 kcal/mol

 Solvation energy (dispersion and cavitation terms) =      1.185214 kcal/mol
 Solvation Energy Contributions (Hartrees)
          esola   esolb+esolc
     0.05437900   -0.10875800
 esol last cycle   -0.05437900

 Energy gradients wrt nuclear displacements
 ==========================================

     Atom      Cartesian (a.u./angstrom)
                 X         Y         Z
 ----------------------------------------
     1 Pa   -0.000071  0.000528 -0.000769
     2 O     0.000108  0.000085  0.000123
     3 Cl   -0.000085 -0.000855  0.000329
     4 Cl   -0.000138  0.000418 -0.000063
     5 Cl    0.000239 -0.000045  0.000120
     6 O     0.000029  0.000180  0.000583
     7 O    -0.000149  0.001126  0.000131
     8 H     0.000111 -0.000176  0.000073
     9 H     0.000161 -0.000148 -0.000505
    10 H    -0.000376 -0.000134  0.000641
    11 H     0.000048 -0.000097  0.000164
    12 O    -0.000360 -0.001013 -0.001472
    13 H     0.000346 -0.000058  0.000416
    14 H     0.000136  0.000188  0.000227
 ----------------------------------------
 Mulliken charges used for AMS results%charges...

 dE(predicted):    -0.24168E-04, dE(actual):    -0.19261E-04, Trust radius:    0.400000, all in a.u.
 
----------------------------------------------------------------------
Geometry Convergence after Step   9       (Hartree/Angstrom,Angstrom)
----------------------------------------------------------------------
current energy                               -3.54010856 Hartree
energy change                      -0.00001926     0.00001400    F
constrained gradient max            0.00147221     0.00010000    F
constrained gradient rms            0.00044669     0.00006667    F
gradient max                        0.00147221
gradient rms                        0.00044669
cart. step max                      0.00614413     0.00100000    F
cart. step rms                      0.00246112     0.00066667    F
 
 
--------
Geometry
--------
Formula: H6Cl3O4Pa
Atoms
  Index Symbol   x (angstrom)   y (angstrom)   z (angstrom)
      1     Pa    -0.40587707    -0.69401439     0.38215475       adf.R=2.200
      2      O    -0.64017557     1.03956766    -0.13069988       adf.R=1.517
      3     Cl    -0.67560916    -2.67169193     2.16029053       adf.R=1.725
      4     Cl     2.02392946    -0.22346424     1.28122626       adf.R=1.725
      5     Cl    -2.67301202    -1.53460228    -0.65825841       adf.R=1.725
      6      O     0.40357998    -0.71322774    -1.96541060       adf.R=1.517
      7      O    -1.45448845     0.23104250     2.37566586       adf.R=1.517
      8      H     0.43448089    -1.48044814    -2.54738561       adf.R=1.350
      9      H     0.26479820     0.06118029    -2.52135254       adf.R=1.350
     10      H    -1.73272181     1.14451066     2.50124444       adf.R=1.350
     11      H    -1.66285033    -0.26758288     3.17314212       adf.R=1.350
     12      O     0.74273082    -2.85088862    -0.47508348       adf.R=1.517
     13      H     0.70609166    -3.55481092     0.18449483       adf.R=1.350
     14      H     1.65482561    -2.82537257    -0.78838772       adf.R=1.350
 
Total System Charge             0.00000
Bonding info available!
 
 *** GO1_GOStep10 ***

 SOLVATION
-------------------------------------------

  The Delley construction of COSMO surface surface is calculated

       Division Level for Surface Triangles (NDIV)                  3
       Final Division Level for Triangles (NFDIV)                   1
       Radius of the Solvent (RSOL)                           1.93000 angstr
  Dielectric Constant (EPSL)                                 78.39000

       COSMO equation is solved iteratively-               conjugate-gradient

       Maximun of Iterations for Charges (NCIX)                  1000
       Criterion for Charge convergence (CCNV)                1.0E-08

  COSMO charges included variationally in SCF

       COSMO included at every SCF cycle

  Geometry-dependent empirical factor                         0.00000

  C-Matrix calculated in cspmtx

  In cspmtx, C-Matrix calculated using fitted potential

-------------------------------------------



 -------------------------------------------
  COSMO surface
  Area             =          634.461
  Volume           =         1168.476
  Number of Points =         1499
 -------------------------------------------



 ======================
 RI Hartree-Fock Scheme
 ======================
  
 Fit Set Quality     : GOOD
 Threshold Quality   : GOOD
 Integration Quality : GOOD
 Fit Generation Method : AUTO
 Response Quality    : DEFAULT
 Is Range Separated  :  F
 
 RIHartreeFock Dependency: number of modified vectors:           9
 cosmo_calcen: 0.5 (esolb+esolc) (Hartrees) =   -0.054365

 Solvation energy (screening term,uncorrected) =    -34.114377 kcal/mol

 Solvation energy (dispersion and cavitation terms) =      1.186393 kcal/mol
 Solvation Energy Contributions (Hartrees)
          esola   esolb+esolc
     0.05436471   -0.10872943
 esol last cycle   -0.05436471
  
 Hartree-Fock exchange energy:   -584.434544118047     
 cosmo_calcen: 0.5 (esolb+esolc) (Hartrees) =   -0.054365

 Solvation energy (screening term,uncorrected) =    -34.114372 kcal/mol

 Solvation energy (dispersion and cavitation terms) =      1.186393 kcal/mol
 Solvation Energy Contributions (Hartrees)
          esola   esolb+esolc
     0.05436471   -0.10872941
 esol last cycle   -0.05436471

 Energy gradients wrt nuclear displacements
 ==========================================

     Atom      Cartesian (a.u./angstrom)
                 X         Y         Z
 ----------------------------------------
     1 Pa   -0.000150  0.000661 -0.000747
     2 O     0.000150 -0.000255 -0.000078
     3 Cl    0.000022 -0.000545  0.000227
     4 Cl   -0.000204  0.000258 -0.000063
     5 Cl    0.000266  0.000025  0.000135
     6 O    -0.000085  0.000636  0.000467
     7 O    -0.000158  0.000848  0.000281
     8 H     0.000040 -0.000091  0.000201
     9 H     0.000155 -0.000260 -0.000378
    10 H    -0.000241 -0.000211  0.000384
    11 H     0.000053 -0.000095  0.000076
    12 O    -0.000255 -0.001335 -0.000898
    13 H     0.000263  0.000130  0.000189
    14 H     0.000144  0.000234  0.000204
 ----------------------------------------
 Mulliken charges used for AMS results%charges...

 dE(predicted):    -0.85510E-05, dE(actual):    -0.14377E-04, Trust radius:    0.400000, all in a.u.
 
----------------------------------------------------------------------
Geometry Convergence after Step  10       (Hartree/Angstrom,Angstrom)
----------------------------------------------------------------------
current energy                               -3.54012293 Hartree
energy change                      -0.00001438     0.00001400    F
constrained gradient max            0.00134802     0.00010000    F
constrained gradient rms            0.00039490     0.00006667    F
gradient max                        0.00134802
gradient rms                        0.00039490
cart. step max                      0.01018640     0.00100000    F
cart. step rms                      0.00473075     0.00066667    F
 
 
--------
Geometry
--------
Formula: H6Cl3O4Pa
Atoms
  Index Symbol   x (angstrom)   y (angstrom)   z (angstrom)
      1     Pa    -0.40425902    -0.69632246     0.38241022       adf.R=2.200
      2      O    -0.63460332     1.03734955    -0.13234863       adf.R=1.517
      3     Cl    -0.67664193    -2.66968939     2.16285824       adf.R=1.725
      4     Cl     2.02471043    -0.23239320     1.28736028       adf.R=1.725
      5     Cl    -2.67351071    -1.53254220    -0.65802697       adf.R=1.725
      6      O     0.40050254    -0.71121584    -1.96651535       adf.R=1.517
      7      O    -1.45562052     0.22856487     2.37105073       adf.R=1.517
      8      H     0.42574756    -1.47485932    -2.55335417       adf.R=1.350
      9      H     0.25461180     0.06635485    -2.51600614       adf.R=1.350
     10      H    -1.72429195     1.14512652     2.49432669       adf.R=1.350
     11      H    -1.67087670    -0.26778804     3.16788037       adf.R=1.350
     12      O     0.74846607    -2.85026339    -0.46814123       adf.R=1.517
     13      H     0.71420002    -3.55461508     0.19075542       adf.R=1.350
     14      H     1.65726795    -2.82750948    -0.79060893       adf.R=1.350
 
Total System Charge             0.00000
Bonding info available!
 
 *** GO1_GOStep11 ***

 SOLVATION
-------------------------------------------

  The Delley construction of COSMO surface surface is calculated

       Division Level for Surface Triangles (NDIV)                  3
       Final Division Level for Triangles (NFDIV)                   1
       Radius of the Solvent (RSOL)                           1.93000 angstr
  Dielectric Constant (EPSL)                                 78.39000

       COSMO equation is solved iteratively-               conjugate-gradient

       Maximun of Iterations for Charges (NCIX)                  1000
       Criterion for Charge convergence (CCNV)                1.0E-08

  COSMO charges included variationally in SCF

       COSMO included at every SCF cycle

  Geometry-dependent empirical factor                         0.00000

  C-Matrix calculated in cspmtx

  In cspmtx, C-Matrix calculated using fitted potential

-------------------------------------------



 -------------------------------------------
  COSMO surface
  Area             =          633.829
  Volume           =         1167.238
  Number of Points =         1499
 -------------------------------------------



 ======================
 RI Hartree-Fock Scheme
 ======================
  
 Fit Set Quality     : GOOD
 Threshold Quality   : GOOD
 Integration Quality : GOOD
 Fit Generation Method : AUTO
 Response Quality    : DEFAULT
 Is Range Separated  :  F
 
 RIHartreeFock Dependency: number of modified vectors:           9
 cosmo_calcen: 0.5 (esolb+esolc) (Hartrees) =   -0.054411

 Solvation energy (screening term,uncorrected) =    -34.143566 kcal/mol

 Solvation energy (dispersion and cavitation terms) =      1.185212 kcal/mol
 Solvation Energy Contributions (Hartrees)
          esola   esolb+esolc
     0.05441123   -0.10882246
 esol last cycle   -0.05441123
  
 Hartree-Fock exchange energy:   -584.435773894179     
 cosmo_calcen: 0.5 (esolb+esolc) (Hartrees) =   -0.054411

 Solvation energy (screening term,uncorrected) =    -34.143561 kcal/mol

 Solvation energy (dispersion and cavitation terms) =      1.185212 kcal/mol
 Solvation Energy Contributions (Hartrees)
          esola   esolb+esolc
     0.05441122   -0.10882244
 esol last cycle   -0.05441122

 Energy gradients wrt nuclear displacements
 ==========================================

     Atom      Cartesian (a.u./angstrom)
                 X         Y         Z
 ----------------------------------------
     1 Pa   -0.000362  0.000909 -0.000526
     2 O     0.000133 -0.000601 -0.000315
     3 Cl    0.000145 -0.000038  0.000136
     4 Cl   -0.000286 -0.000052 -0.000070
     5 Cl    0.000255  0.000104  0.000127
     6 O    -0.000150  0.001060  0.000265
     7 O    -0.000187  0.000219  0.000531
     8 H    -0.000027  0.000020  0.000314
     9 H     0.000109 -0.000347 -0.000133
    10 H     0.000010 -0.000246  0.000057
    11 H     0.000071 -0.000064 -0.000262
    12 O     0.000221 -0.001525 -0.000256
    13 H     0.000087  0.000346 -0.000017
    14 H    -0.000018  0.000215  0.000150
 ----------------------------------------
 Mulliken charges used for AMS results%charges...

 dE(predicted):    -0.12228E-04, dE(actual):    -0.15800E-04, Trust radius:    0.400000, all in a.u.
 
----------------------------------------------------------------------
Geometry Convergence after Step  11       (Hartree/Angstrom,Angstrom)
----------------------------------------------------------------------
current energy                               -3.54013873 Hartree
energy change                      -0.00001580     0.00001400    F
constrained gradient max            0.00153918     0.00010000    F
constrained gradient rms            0.00039437     0.00006667    F
gradient max                        0.00153918
gradient rms                        0.00039437
cart. step max                      0.00988290     0.00100000    F
cart. step rms                      0.00373164     0.00066667    F
 
 
--------
Geometry
--------
Formula: H6Cl3O4Pa
Atoms
  Index Symbol   x (angstrom)   y (angstrom)   z (angstrom)
      1     Pa    -0.40303238    -0.69757205     0.38300071       adf.R=2.200
      2      O    -0.62978281     1.03713953    -0.13060890       adf.R=1.517
      3     Cl    -0.68083495    -2.67042500     2.16204647       adf.R=1.725
      4     Cl     2.02468948    -0.23787078     1.29406549       adf.R=1.725
      5     Cl    -2.67385922    -1.52886250    -0.65896146       adf.R=1.725
      6      O     0.39769791    -0.71340621    -1.96785215       adf.R=1.517
      7      O    -1.45746494     0.22755225     2.36814160       adf.R=1.517
      8      H     0.41586466    -1.47426096    -2.55859223       adf.R=1.350
      9      H     0.24930589     0.06724389    -2.51233645       adf.R=1.350
     10      H    -1.71992411     1.14605464     2.49036268       adf.R=1.350
     11      H    -1.67450741    -0.26676107     3.16575007       adf.R=1.350
     12      O     0.75424750    -2.84817092    -0.46333127       adf.R=1.517
     13      H     0.72365254    -3.55307503     0.19506695       adf.R=1.350
     14      H     1.65965007    -2.82738838    -0.79511096       adf.R=1.350
 
Total System Charge             0.00000
Bonding info available!
 
 *** GO1_GOStep12 ***

 SOLVATION
-------------------------------------------

  The Delley construction of COSMO surface surface is calculated

       Division Level for Surface Triangles (NDIV)                  3
       Final Division Level for Triangles (NFDIV)                   1
       Radius of the Solvent (RSOL)                           1.93000 angstr
  Dielectric Constant (EPSL)                                 78.39000

       COSMO equation is solved iteratively-               conjugate-gradient

       Maximun of Iterations for Charges (NCIX)                  1000
       Criterion for Charge convergence (CCNV)                1.0E-08

  COSMO charges included variationally in SCF

       COSMO included at every SCF cycle

  Geometry-dependent empirical factor                         0.00000

  C-Matrix calculated in cspmtx

  In cspmtx, C-Matrix calculated using fitted potential

-------------------------------------------



 -------------------------------------------
  COSMO surface
  Area             =          634.541
  Volume           =         1168.310
  Number of Points =         1502
 -------------------------------------------



 ======================
 RI Hartree-Fock Scheme
 ======================
  
 Fit Set Quality     : GOOD
 Threshold Quality   : GOOD
 Integration Quality : GOOD
 Fit Generation Method : AUTO
 Response Quality    : DEFAULT
 Is Range Separated  :  F
 
 RIHartreeFock Dependency: number of modified vectors:           9
 cosmo_calcen: 0.5 (esolb+esolc) (Hartrees) =   -0.054475

 Solvation energy (screening term,uncorrected) =    -34.183882 kcal/mol

 Solvation energy (dispersion and cavitation terms) =      1.186542 kcal/mol
 Solvation Energy Contributions (Hartrees)
          esola   esolb+esolc
     0.05447548   -0.10895096
 esol last cycle   -0.05447548
  
 Hartree-Fock exchange energy:   -584.436010905733     
 cosmo_calcen: 0.5 (esolb+esolc) (Hartrees) =   -0.054475

 Solvation energy (screening term,uncorrected) =    -34.183878 kcal/mol

 Solvation energy (dispersion and cavitation terms) =      1.186542 kcal/mol
 Solvation Energy Contributions (Hartrees)
          esola   esolb+esolc
     0.05447547   -0.10895094
 esol last cycle   -0.05447547

 Energy gradients wrt nuclear displacements
 ==========================================

     Atom      Cartesian (a.u./angstrom)
                 X         Y         Z
 ----------------------------------------
     1 Pa   -0.000436  0.000921 -0.000356
     2 O     0.000024 -0.000483 -0.000256
     3 Cl    0.000155  0.000128  0.000124
     4 Cl   -0.000278 -0.000215 -0.000079
     5 Cl    0.000235  0.000118  0.000115
     6 O    -0.000135  0.000845  0.000184
     7 O    -0.000186  0.000053  0.000412
     8 H    -0.000034  0.000030  0.000255
     9 H     0.000048 -0.000247 -0.000004
    10 H     0.000117 -0.000196 -0.000085
    11 H     0.000074 -0.000131 -0.000274
    12 O     0.000499 -0.001329 -0.000129
    13 H    -0.000026  0.000356 -0.000004
    14 H    -0.000057  0.000149  0.000095
 ----------------------------------------
 Mulliken charges used for AMS results%charges...

 dE(predicted):    -0.57677E-05, dE(actual):    -0.10938E-04, Trust radius:    0.400000, all in a.u.
 
----------------------------------------------------------------------
Geometry Convergence after Step  12       (Hartree/Angstrom,Angstrom)
----------------------------------------------------------------------
current energy                               -3.54014967 Hartree
energy change                      -0.00001094     0.00001400    T
constrained gradient max            0.00134105     0.00010000    F
constrained gradient rms            0.00035108     0.00006667    F
gradient max                        0.00134105
gradient rms                        0.00035108
cart. step max                      0.01578075     0.00100000    F
cart. step rms                      0.00558403     0.00066667    F
 
 
--------
Geometry
--------
Formula: H6Cl3O4Pa
Atoms
  Index Symbol   x (angstrom)   y (angstrom)   z (angstrom)
      1     Pa    -0.40100724    -0.69907389     0.38456735       adf.R=2.200
      2      O    -0.62224306     1.03744318    -0.12660097       adf.R=1.517
      3     Cl    -0.68820009    -2.67375072     2.15887389       adf.R=1.725
      4     Cl     2.02388387    -0.24165899     1.30559839       adf.R=1.725
      5     Cl    -2.67399229    -1.52278362    -0.66031319       adf.R=1.725
      6      O     0.39443749    -0.71921119    -1.96935420       adf.R=1.517
      7      O    -1.46098209     0.22697552     2.36459509       adf.R=1.517
      8      H     0.40099138    -1.47626879    -2.56530911       adf.R=1.350
      9      H     0.24456840     0.06580718    -2.50732901       adf.R=1.350
     10      H    -1.71548025     1.14789107     2.48613919       adf.R=1.350
     11      H    -1.67829436    -0.26407256     3.16421873       adf.R=1.350
     12      O     0.76173916    -2.84448606    -0.45762248       adf.R=1.517
     13      H     0.73943329    -3.55020293     0.20024840       adf.R=1.350
     14      H     1.66084802    -2.82641081    -0.80607154       adf.R=1.350
 
Total System Charge             0.00000
Bonding info available!
 
 *** GO1_GOStep13 ***

 SOLVATION
-------------------------------------------

  The Delley construction of COSMO surface surface is calculated

       Division Level for Surface Triangles (NDIV)                  3
       Final Division Level for Triangles (NFDIV)                   1
       Radius of the Solvent (RSOL)                           1.93000 angstr
  Dielectric Constant (EPSL)                                 78.39000

       COSMO equation is solved iteratively-               conjugate-gradient

       Maximun of Iterations for Charges (NCIX)                  1000
       Criterion for Charge convergence (CCNV)                1.0E-08

  COSMO charges included variationally in SCF

       COSMO included at every SCF cycle

  Geometry-dependent empirical factor                         0.00000

  C-Matrix calculated in cspmtx

  In cspmtx, C-Matrix calculated using fitted potential

-------------------------------------------



 -------------------------------------------
  COSMO surface
  Area             =          634.186
  Volume           =         1168.305
  Number of Points =         1500
 -------------------------------------------



 ======================
 RI Hartree-Fock Scheme
 ======================
  
 Fit Set Quality     : GOOD
 Threshold Quality   : GOOD
 Integration Quality : GOOD
 Fit Generation Method : AUTO
 Response Quality    : DEFAULT
 Is Range Separated  :  F
 
 RIHartreeFock Dependency: number of modified vectors:           9
 cosmo_calcen: 0.5 (esolb+esolc) (Hartrees) =   -0.054634

 Solvation energy (screening term,uncorrected) =    -34.283410 kcal/mol

 Solvation energy (dispersion and cavitation terms) =      1.185879 kcal/mol
 Solvation Energy Contributions (Hartrees)
          esola   esolb+esolc
     0.05463409   -0.10926817
 esol last cycle   -0.05463409
  
 Hartree-Fock exchange energy:   -584.435865825599     
 cosmo_calcen: 0.5 (esolb+esolc) (Hartrees) =   -0.054634

 Solvation energy (screening term,uncorrected) =    -34.283407 kcal/mol

 Solvation energy (dispersion and cavitation terms) =      1.185879 kcal/mol
 Solvation Energy Contributions (Hartrees)
          esola   esolb+esolc
     0.05463408   -0.10926816
 esol last cycle   -0.05463408

 Energy gradients wrt nuclear displacements
 ==========================================

     Atom      Cartesian (a.u./angstrom)
                 X         Y         Z
 ----------------------------------------
     1 Pa   -0.000373  0.000820 -0.000086
     2 O    -0.000161 -0.000063 -0.000060
     3 Cl    0.000092  0.000123  0.000121
     4 Cl   -0.000206 -0.000289 -0.000091
     5 Cl    0.000187  0.000076  0.000092
     6 O    -0.000112  0.000190  0.000228
     7 O    -0.000034 -0.000087  0.000008
     8 H    -0.000001  0.000007  0.000078
     9 H    -0.000054 -0.000030  0.000095
    10 H     0.000199 -0.000044 -0.000136
    11 H    -0.000034 -0.000177 -0.000154
    12 O     0.000655 -0.000807 -0.000236
    13 H    -0.000091  0.000253  0.000113
    14 H    -0.000066  0.000028  0.000028
 ----------------------------------------
 Mulliken charges used for AMS results%charges...

 dE(predicted):    -0.69424E-05, dE(actual):    -0.15329E-04, Trust radius:    0.400000, all in a.u.
 
----------------------------------------------------------------------
Geometry Convergence after Step  13       (Hartree/Angstrom,Angstrom)
----------------------------------------------------------------------
current energy                               -3.54016500 Hartree
energy change                      -0.00001533     0.00001400    F
constrained gradient max            0.00082140     0.00010000    F
constrained gradient rms            0.00024595     0.00006667    F
gradient max                        0.00082140
gradient rms                        0.00024595
cart. step max                      0.00732836     0.00100000    F
cart. step rms                      0.00271430     0.00066667    F
 
 
--------
Geometry
--------
Formula: H6Cl3O4Pa
Atoms
  Index Symbol   x (angstrom)   y (angstrom)   z (angstrom)
      1     Pa    -0.39997256    -0.69947703     0.38557824       adf.R=2.200
      2      O    -0.61847844     1.03785628    -0.12432830       adf.R=1.517
      3     Cl    -0.69207783    -2.67634121     2.15637247       adf.R=1.725
      4     Cl     2.02300395    -0.23990538     1.31154336       adf.R=1.725
      5     Cl    -2.67375458    -1.51978409    -0.66111702       adf.R=1.725
      6      O     0.39366739    -0.72310689    -1.96999128       adf.R=1.517
      7      O    -1.46304357     0.22713916     2.36375945       adf.R=1.517
      8      H     0.39423614    -1.47875263    -2.56784900       adf.R=1.350
      9      H     0.24509438     0.06372395    -2.50582211       adf.R=1.350
     10      H    -1.71596994     1.14855886     2.48540677       adf.R=1.350
     11      H    -1.67764044    -0.26221949     3.16519326       adf.R=1.350
     12      O     0.76409322    -2.84268027    -0.45571253       adf.R=1.517
     13      H     0.74676165    -3.54913152     0.20158483       adf.R=1.350
     14      H     1.65978286    -2.82568235    -0.81297760       adf.R=1.350
 
Total System Charge             0.00000
Bonding info available!
 
 *** GO1_GOStep14 ***

 SOLVATION
-------------------------------------------

  The Delley construction of COSMO surface surface is calculated

       Division Level for Surface Triangles (NDIV)                  3
       Final Division Level for Triangles (NFDIV)                   1
       Radius of the Solvent (RSOL)                           1.93000 angstr
  Dielectric Constant (EPSL)                                 78.39000

       COSMO equation is solved iteratively-               conjugate-gradient

       Maximun of Iterations for Charges (NCIX)                  1000
       Criterion for Charge convergence (CCNV)                1.0E-08

  COSMO charges included variationally in SCF

       COSMO included at every SCF cycle

  Geometry-dependent empirical factor                         0.00000

  C-Matrix calculated in cspmtx

  In cspmtx, C-Matrix calculated using fitted potential

-------------------------------------------



 -------------------------------------------
  COSMO surface
  Area             =          633.972
  Volume           =         1167.770
  Number of Points =         1497
 -------------------------------------------



 ======================
 RI Hartree-Fock Scheme
 ======================
  
 Fit Set Quality     : GOOD
 Threshold Quality   : GOOD
 Integration Quality : GOOD
 Fit Generation Method : AUTO
 Response Quality    : DEFAULT
 Is Range Separated  :  F
 
 RIHartreeFock Dependency: number of modified vectors:           9
 cosmo_calcen: 0.5 (esolb+esolc) (Hartrees) =   -0.054744

 Solvation energy (screening term,uncorrected) =    -34.352693 kcal/mol

 Solvation energy (dispersion and cavitation terms) =      1.185478 kcal/mol
 Solvation Energy Contributions (Hartrees)
          esola   esolb+esolc
     0.05474450   -0.10948899
 esol last cycle   -0.05474450
  
 Hartree-Fock exchange energy:   -584.435535818405     
 cosmo_calcen: 0.5 (esolb+esolc) (Hartrees) =   -0.054744

 Solvation energy (screening term,uncorrected) =    -34.352690 kcal/mol

 Solvation energy (dispersion and cavitation terms) =      1.185478 kcal/mol
 Solvation Energy Contributions (Hartrees)
          esola   esolb+esolc
     0.05474449   -0.10948898
 esol last cycle   -0.05474449

 Energy gradients wrt nuclear displacements
 ==========================================

     Atom      Cartesian (a.u./angstrom)
                 X         Y         Z
 ----------------------------------------
     1 Pa   -0.000311  0.000737  0.000003
     2 O    -0.000183  0.000165  0.000103
     3 Cl    0.000017 -0.000020  0.000112
     4 Cl   -0.000130 -0.000191 -0.000088
     5 Cl    0.000142  0.000014  0.000073
     6 O    -0.000041 -0.000211  0.000266
     7 O     0.000035 -0.000137 -0.000213
     8 H     0.000030 -0.000013 -0.000045
     9 H    -0.000089  0.000093  0.000078
    10 H     0.000004  0.000071 -0.000033
    11 H     0.000070 -0.000127 -0.000069
    12 O     0.000504 -0.000484 -0.000392
    13 H    -0.000059  0.000141  0.000200
    14 H     0.000010 -0.000039  0.000005
 ----------------------------------------
 Mulliken charges used for AMS results%charges...

 dE(predicted):    -0.26288E-05, dE(actual):    -0.79132E-05, Trust radius:    0.400000, all in a.u.
 
----------------------------------------------------------------------
Geometry Convergence after Step  14       (Hartree/Angstrom,Angstrom)
----------------------------------------------------------------------
current energy                               -3.54017291 Hartree
energy change                      -0.00000791     0.00001400    T
constrained gradient max            0.00073906     0.00010000    F
constrained gradient rms            0.00020431     0.00006667    F
gradient max                        0.00073906
gradient rms                        0.00020431
cart. step max                      0.01094540     0.00100000    F
cart. step rms                      0.00354942     0.00066667    F
 
 
--------
Geometry
--------
Formula: H6Cl3O4Pa
Atoms
  Index Symbol   x (angstrom)   y (angstrom)   z (angstrom)
      1     Pa    -0.39814549    -0.70100384     0.38751663       adf.R=2.200
      2      O    -0.61268368     1.03672353    -0.12302806       adf.R=1.517
      3     Cl    -0.69469244    -2.67959954     2.15482402       adf.R=1.725
      4     Cl     2.02179190    -0.23671121     1.32035923       adf.R=1.725
      5     Cl    -2.67326989    -1.51735907    -0.66072395       adf.R=1.725
      6      O     0.39334378    -0.72666807    -1.96982401       adf.R=1.517
[...]
 Index  Atom      ---- Displacements (x/y/z) ----
     1    Pa      -0.000001   0.000000  -0.000006
     2     O      -0.000005  -0.000023   0.000017
     3    Cl       0.000002  -0.000055   0.000048
     4    Cl      -0.000016  -0.000009   0.000004
     5    Cl       0.000009   0.000002   0.000006
     6     O      -0.000006   0.000523   0.000481
     7     O       0.000007  -0.000472   0.000278
     8     H       0.000288  -0.009221  -0.007662
     9     H      -0.000056   0.000767  -0.000073
    10     H      -0.000580   0.003984   0.000518
    11     H       0.000913   0.003445  -0.005041
    12     O      -0.044185  -0.030584   0.046036
    13     H      -0.003694   0.474028  -0.419531
    14     H       0.704778   0.014074  -0.311705
 
 Mode:    41      Frequency (cm-1):     3887.5887     Intensity (km/mol):      276.4489
 Index  Atom      ---- Displacements (x/y/z) ----
     1    Pa       0.000002  -0.000008   0.000001
     2     O       0.000018   0.000007  -0.000045
     3    Cl      -0.000001  -0.000001   0.000001
     4    Cl      -0.000004  -0.000000  -0.000002
     5    Cl      -0.000001   0.000002   0.000002
     6     O       0.006090  -0.071068  -0.001877
     7     O       0.000067  -0.001053   0.000439
     8     H       0.009307   0.535067   0.429330
     9     H      -0.106406   0.594060  -0.399575
    10     H      -0.003157   0.011738   0.001443
    11     H       0.002042   0.005048  -0.008419
    12     O      -0.000335  -0.000265   0.000371
    13     H       0.000161   0.003965  -0.003811
    14     H       0.005086   0.000612  -0.001631
 
 Mode:    42      Frequency (cm-1):     3892.9967     Intensity (km/mol):      276.4720
 Index  Atom      ---- Displacements (x/y/z) ----
     1    Pa       0.000000  -0.000006   0.000003
     2     O       0.000010   0.000047   0.000040
     3    Cl       0.000004  -0.000033   0.000017
     4    Cl       0.000003  -0.000006  -0.000000
     5    Cl       0.000006   0.000016   0.000006
     6     O      -0.000085   0.001110   0.000090
     7     O       0.002265  -0.064753   0.030912
     8     H      -0.000127  -0.009098  -0.007216
     9     H       0.001771  -0.008810   0.005797
    10     H      -0.196608   0.687872   0.084279
    11     H       0.160285   0.341725  -0.577191
    12     O       0.000294   0.000228  -0.000327
    13     H      -0.000278  -0.003675   0.003255
    14     H      -0.005039  -0.000126   0.002178

 Vibrational polarizability tensor (a.u.):
                  X                   Y                   Z
 X            7591.40371          1434.14255          2902.30365
 Y            1434.14255          2608.69647          1759.97380
 Z            2902.30365          1759.97380          5783.14138

 Isotropic =      5327.7    atomic units

PES point character: Geometry corresponds to a local minimum on the PES.




 ============================
 Statistical Thermal Analysis  ***  ideal gas assumed  ***
 ============================
  
 Pressure:                  1.000000 atm.
 Temperature:             298.150000 K



 Moments of Inertia [amu*bohr^2] and principal axis
 ==================================================

        2300.1661       2714.9827       3053.3052
 ------------------------------------------------
          -0.8940         -0.2494          0.3722
          -0.2281         -0.4616         -0.8573
          -0.3857          0.8513         -0.3557


 The rotational contribution to the molecular entropy includes
 a term, dependent on the symmetry number sigma. The results 
 reported below were computed using sigma = 1, determined from
 the point group symmetry of the input geometry (NOSYM). 
 If this is not the correct symmetry, try symmetrizing the molecule before
 running the calculation (note: linear molecules should be aligned along one
 of the Cartesian axes).
 Contributions from frequencies below 20 1/cm are not included in vibrational sums.
 Their contributions, if any, are reported separately.


     Temp                                                        Transl      Rotat     Vibrat     Total
     ----                                                        ------      -----     ------     -----

     298.15   Entropy (cal/mol-K):                               43.895     31.323     60.184    135.401
              Nuclear Internal Energy (kcal/mol):                 0.889      0.889     58.620     60.397
              Constant Volume Heat Capacity (cal/mol-K):          2.981      2.981     45.848     51.809
          (c) Constant Volume Heat Capacity (cal/mol-K):          2.981      2.981     40.258     46.220

       Summary of energy terms
                                                   hartree              eV         kcal/mol           kJ/mol
                                      --------------------     -----------       ----------      -----------
      Energy from Engine:               -3.540189451448489        -96.3335         -2221.50         -9294.77
      Nuclear Internal Energy:           0.096249365059193          2.6191            60.40           252.70
  (c) Nuclear Internal Energy:           0.093381272398895          2.5410            58.60           245.17
      Internal Energy U:                -3.443940086389296        -93.7144         -2161.11         -9042.06
      pV/n = RT:                         0.000944186013486          0.0257             0.59             2.48
      Enthalpy H:                       -3.442995900375810        -93.6887         -2160.51         -9039.58
      -T*S:                             -0.064333269794979         -1.7506           -40.37          -168.91
  (c) -T*S:                             -0.061859345982102         -1.6833           -38.82          -162.41
      Gibbs free energy:                -3.507329170170789        -95.4393         -2200.88         -9208.49
 
 
 
  (c) The properties marked with this symbol have been corrected using 'low vibrational frequency free rotor
      interpolation corrections'. For those terms all positive frequencies are used (also ones below 20 1/cm),
      but the contribution to the partition function of small vibrational frequencies is modified as described
      in the following paper:
      S. Grimme, 'Supramolecular Binding Thermodynamics by Dispersion-Corrected Density Functional Theory'
      (Chem. Eur. J. 2012, 18, 9955-9964)
      Configuration: Dampener Frequency          :   100.000 1/cm
                     Dampener Alpha              :     4.000
                     Averaging Moment of Inertia : 1.000E-44 kg m2

--------------
Atomic charges
--------------
  Index   Atom    Charge
      1     Pa    1.9382
      2      O   -0.7657
      3     Cl   -0.4804
      4     Cl   -0.5049
      5     Cl   -0.5031
      6      O   -0.4042
      7      O   -0.3522
      8      H    0.2459
      9      H    0.2643
     10      H    0.2317
     11      H    0.2259
     12      O   -0.4284
     13      H    0.2729
     14      H    0.2600


Dipole moment vector    (Debye):     2.08824621   -0.77812514   -3.35090342
              magnitude (Debye):     4.02427692


-----------------------
Molecular orbitals info
-----------------------
n orbitals:              407
n spin:                    1

Note: only printing virtual orbitals with
      energy smaller than HOMO + 100. eV

HOMO (eV):              -8.3999
LUMO (eV):              -2.2983
HOMO-LUMO gap (eV):      6.1017

   Index   Energy (eV)    Occupation
     279       90.7677         0.000       
     278       89.8622         0.000       
     277       89.2929         0.000       
     276       88.4608         0.000       
     275       87.3130         0.000       
     274       87.1301         0.000       
     273       85.9862         0.000       
     272       85.7314         0.000       
     271       85.0501         0.000       
     270       83.3591         0.000       
     269       83.0922         0.000       
     268       82.9571         0.000       
     267       81.6149         0.000       
     266       79.7978         0.000       
     265       79.4469         0.000       
     264       78.1971         0.000       
     263       77.4111         0.000       
     262       75.9605         0.000       
     261       75.5147         0.000       
     260       74.3209         0.000       
     259       73.6454         0.000       
     258       73.2350         0.000       
     257       72.4478         0.000       
     256       71.8953         0.000       
     255       71.6524         0.000       
     254       70.9017         0.000       
     253       70.7117         0.000       
     252       69.7054         0.000       
     251       69.4986         0.000       
     250       68.9432         0.000       
     249       68.4906         0.000       
     248       67.8626         0.000       
     247       67.1286         0.000       
     246       66.7572         0.000       
     245       64.7346         0.000       
     244       64.3252         0.000       
     243       63.8214         0.000       
     242       62.0487         0.000       
     241       61.3098         0.000       
     240       60.0587         0.000       
     239       59.1276         0.000       
     238       56.7584         0.000       
     237       55.4996         0.000       
     236       54.3642         0.000       
     235       53.7979         0.000       
     234       53.6891         0.000       
     233       52.7616         0.000       
     232       52.3843         0.000       
     231       51.6722         0.000       
     230       50.9606         0.000       
     229       49.4793         0.000       
     228       48.3074         0.000       
     227       47.0676         0.000       
     226       46.9197         0.000       
     225       45.8761         0.000       
     224       45.2113         0.000       
     223       44.7350         0.000       
     222       44.1848         0.000       
     221       43.1631         0.000       
     220       42.3124         0.000       
     219       41.8221         0.000       
     218       41.7346         0.000       
     217       41.3639         0.000       
     216       40.8247         0.000       
     215       40.0493         0.000       
     214       39.6498         0.000       
     213       39.5520         0.000       
     212       39.0003         0.000       
     211       38.9000         0.000       
     210       38.6332         0.000       
     209       38.4652         0.000       
     208       38.1819         0.000       
     207       37.9702         0.000       
     206       37.4128         0.000       
     205       37.1903         0.000       
     204       37.1816         0.000       
     203       36.8417         0.000       
     202       36.6898         0.000       
     201       36.4254         0.000       
     200       36.1900         0.000       
     199       36.1115         0.000       
     198       35.7738         0.000       
     197       35.6536         0.000       
     196       35.5404         0.000       
     195       35.4995         0.000       
     194       35.2886         0.000       
     193       35.0827         0.000       
     192       34.9762         0.000       
     191       34.6137         0.000       
     190       34.0900         0.000       
     189       33.6603         0.000       
     188       33.0820         0.000       
     187       32.1491         0.000       
     186       31.8504         0.000       
     185       31.5699         0.000       
     184       30.3957         0.000       
     183       29.6875         0.000       
     182       28.9947         0.000       
     181       27.6332         0.000       
     180       26.5713         0.000       
     179       26.0055         0.000       
     178       25.9009         0.000       
     177       25.3032         0.000       
     176       24.9453         0.000       
     175       24.2433         0.000       
     174       23.9698         0.000       
     173       23.0387         0.000       
     172       22.2518         0.000       
     171       22.0181         0.000       
     170       21.5308         0.000       
     169       21.1851         0.000       
     168       20.9201         0.000       
     167       20.0007         0.000       
     166       19.9502         0.000       
     165       19.4351         0.000       
     164       18.4652         0.000       
     163       18.1358         0.000       
     162       17.9510         0.000       
     161       17.3394         0.000       
     160       17.0853         0.000       
     159       16.9507         0.000       
     158       16.6024         0.000       
     157       16.2846         0.000       
     156       16.2012         0.000       
     155       15.7566         0.000       
     154       15.6977         0.000       
     153       15.6695         0.000       
     152       15.4798         0.000       
     151       15.3362         0.000       
     150       15.0853         0.000       
     149       14.5042         0.000       
     148       14.4449         0.000       
     147       13.9613         0.000       
     146       13.6007         0.000       
     145       13.4321         0.000       
     144       13.3402         0.000       
     143       13.2737         0.000       
     142       12.9945         0.000       
     141       12.7983         0.000       
     140       12.1090         0.000       
     139       11.9816         0.000       
     138       11.4783         0.000       
     137       11.3341         0.000       
     136       11.2175         0.000       
     135       10.8981         0.000       
     134       10.6119         0.000       
     133       10.4632         0.000       
     132       10.2130         0.000       
     131        9.8776         0.000       
     130        9.6345         0.000       
     129        9.2722         0.000       
     128        9.1507         0.000       
     127        9.0018         0.000       
     126        8.6372         0.000       
     125        8.4459         0.000       
     124        8.1823         0.000       
     123        7.5656         0.000       
     122        7.3346         0.000       
     121        7.0686         0.000       
     120        6.8034         0.000       
     119        6.7538         0.000       
     118        6.1239         0.000       
     117        5.2904         0.000       
     116        5.2130         0.000       
     115        4.6426         0.000       
     114        4.2737         0.000       
     113        3.9368         0.000       
     112        3.8340         0.000       
     111        3.2856         0.000       
     110        2.8029         0.000       
     109        2.7366         0.000       
     108        2.5904         0.000       
     107        2.3725         0.000       
     106        2.0854         0.000       
     105        1.9237         0.000       
     104        1.8823         0.000       
     103        1.4196         0.000       
     102        1.3527         0.000       
     101        1.0257         0.000       
     100        0.5058         0.000       
      99       -0.3203         0.000       
      98       -0.4039         0.000       
      97       -1.4089         0.000       
      96       -1.7798         0.000       
      95       -1.9115         0.000       
      94       -2.1382         0.000       
      93       -2.1628         0.000       
      92       -2.2496         0.000       
      91       -2.2983         0.000 < LUMO
      90       -8.3999         2.000 < HOMO
      89       -8.4963         2.000       
      88       -8.7625         2.000       
      87       -8.8800         2.000       
      86       -8.9132         2.000       
      85       -8.9943         2.000       
      84       -9.0873         2.000       
      83       -9.3044         2.000       
      82       -9.9801         2.000       
      81      -10.2066         2.000       
      80      -10.4471         2.000       
      79      -10.5818         2.000       
      78      -10.9689         2.000       
      77      -11.0081         2.000       
      76      -11.2310         2.000       
      75      -13.0360         2.000       
      74      -13.0894         2.000       
      73      -14.0994         2.000       
      72      -16.2136         2.000       
      71      -16.6963         2.000       
      70      -16.7377         2.000       
      69      -21.0718         2.000       
      68      -21.3246         2.000       
      67      -22.0241         2.000       
      66      -22.5916         2.000       
      65      -25.8942         2.000       
      64      -26.4681         2.000       
      63      -29.6682         2.000       
      62      -30.0981         2.000       
      61      -30.2507         2.000       
      60      -30.4088         2.000       
      59      -50.7859         2.000       
      58     -100.6824         2.000       
      57     -100.7058         2.000       
      56     -100.7474         2.000       
      55     -100.8327         2.000       
      54     -100.8350         2.000       
      53     -196.4424         2.000       
      52     -196.4471         2.000       
      51     -196.4534         2.000       
      50     -196.4605         2.000       
      49     -196.4756         2.000       
      48     -196.4815         2.000       
      47     -196.5573         2.000       
      46     -196.5592         2.000       
      45     -196.5929         2.000       
      44     -207.8310         2.000       
      43     -208.0619         2.000       
      42     -208.1338         2.000       
      41     -260.0083         2.000       
      40     -260.0144         2.000       
      39     -260.1214         2.000       
      38     -306.5333         2.000       
      37     -361.7671         2.000       
      36     -361.7896         2.000       
      35     -361.8291         2.000       
      34     -361.9365         2.000       
      33     -361.9445         2.000       
      32     -362.0784         2.000       
      31     -362.0809         2.000       
      30     -522.9553         2.000       
      29     -524.6174         2.000       
      28     -524.7271         2.000       
      27     -524.8314         2.000       
      26     -713.5931         2.000       
      25     -713.7185         2.000       
      24     -713.7516         2.000       
      23     -713.9172         2.000       
      22     -713.9390         2.000       
      21    -1041.8693         2.000       
      20    -1042.1555         2.000       
      19    -1042.2191         2.000       
      18    -1360.2583         2.000       
      17    -2776.1911         2.000       
      16    -2776.1969         2.000       
      15    -2776.3017         2.000       
      14    -3485.4733         2.000       
      13    -3485.5212         2.000       
      12    -3485.5352         2.000       
      11    -3485.6127         2.000       
      10    -3485.6209         2.000       
       9    -4347.6830         2.000       
       8    -4347.8432         2.000       
       7    -4347.8768         2.000       
       6    -5318.8613         2.000       
       5   -17561.7981         2.000       
       4   -17561.8217         2.000       
       3   -17561.8269         2.000       
       2   -21037.6143         2.000       
       1  -112699.3548         2.000       

Final PES point is a local minimum. Geometry optimization successful!


AMS application finished. Exiting.
NORMAL TERMINATION
     Total cpu time:   30906.20
  Total system time:     795.01
 Total elapsed time:   31716.21
