

 Parallel Execution: Process Information
 ==============================================================================
 Rank   Node Name                              NodeID   MyNodeRank  NodeMaster
    0   u-0-3.local                               0          0          0
    1   u-0-3.local                               0          1         -1
    2   u-0-3.local                               0          2         -1
    3   u-0-3.local                               0          3         -1
    4   u-0-3.local                               1          0          1
    5   u-0-3.local                               1          1         -1
    6   u-0-3.local                               1          2         -1
    7   u-0-3.local                               1          3         -1
    8   u-0-3.local                               2          0          2
    9   u-0-3.local                               2          1         -1
   10   u-0-3.local                               2          2         -1
   11   u-0-3.local                               2          3         -1
   12   u-0-3.local                               3          0          3
   13   u-0-3.local                               3          1         -1
   14   u-0-3.local                               3          2         -1
   15   u-0-3.local                               3          3         -1
 ==============================================================================


May use up to 31228MB of RAM as shared memory on node 0
May use up to 31250MB of RAM as shared memory on node 1
May use up to 31250MB of RAM as shared memory on node 2
May use up to 31250MB of RAM as shared memory on node 3

 *******************************************************************************
 *                                                                             *
 *  --------------------------------                                           *
 *   Amsterdam Modeling Suite (AMS)              2024.103                      *
 *  --------------------------------                                           *
 *                                               r241004 2024-10-04 d82be5f7   *
 *                                                                             *
 *                                                                             *
 *                              =================                              *
 *                              |               |                              *
 *                              |     A M S     |                              *
 *                              |               |                              *
 *                              =================                              *
 *                                                                             *
 *                                                                             *
 *   Online information and documentation:  https://www.scm.com/support/       *
 *   E-mail:  support@scm.com   info@scm.com                                   *
 *                                                                             *
 *   Scientific publications using AMS results must be properly referenced     *
 *   See the User Manuals (or the web site) for recommended citations          *
 *   The terms and conditions of the End User License Agreement apply to       *
 *   the use of AMS, https://www.scm.com/license-terms/                        *
 *                                                                             *
 **********************  x86_64_linux_intel / intelmpi  ************************
 
 Licensed to: Dr. Val?rie Vallet / Laboratoire PhLAM UMR 8523 / Villeneuve d'Ascq Cedex / FRANCE 2024-02-19 16:59:55
 SCM User ID: u10325
  
 AMS 2024.103  RunTime: Nov13-2024 17:13:46  ShM Nodes: 4  Procs: 16

 AMS jobname: pao_cl5_h2o.pbe0-D3BJ.tz2p.opt-freq-solvation
 AMS jobid  : 1766312461

 Start   directory: /state/partition2/shaaban/1032752.phlam-s-sakura/
 Results directory: /home/shaaban/ams/PhD/geometries-exafs/pao-chloride/pao_cl5_h2o/PBE0-D3-BJ/pao_cl5_h2o.pbe0-D3BJ.tz2p.opt-freq-solvation.results/
 Scratch directory: /state/partition2/shaaban/1032752.phlam-s-sakura/amstmp_pao_cl5_h2o.pbe0-D3BJ.tz2p.opt-freq-solvation_kid0.1766312461/


 Communication costs MPI_COMM_WORLD:     -1.705 usec per message,   0.0449 usec per 8-byte item
 Communication costs for intra-node:      0.242 usec per message,   0.0088 usec per 8-byte item

 RNG seed: -791448786 207507479 -1890663733 904796310 2033830442 -1420599519 -665700372 262163881



                     *************************************************************************
                     *  ADF 2024.103  RunTime: Nov13-2024 17:13:47  ShM Nodes: 4  Procs: 16  *
                     *************************************************************************
  

       ***************************
       *  GEOMETRY OPTIMIZATION  *
       ***************************

Optimization Method                    Quasi Newton
Optimization Coordinates               Delocalized Coordinates
Optimize lattice                       F
 
 ------------------------------------------------------
 Convergence criteria (Hartree,Angstrom)
 ------------------------------------------------------
 Maximum gradient               0.000100000000
 Maximum rms gradient           0.000066666667
 Maximum step allowed           0.001000000000
 Maximum rms step allowed       0.000666666667
 Maximum energy change allowe   0.000010000000
 Maximum stress energy allowe   0.000500000000
 
Initial model Hessian                  Automatic Hessian
 
------------------------------------
Quasi-Newton Optimizer Parameters
------------------------------------
Hessian Update Method                  BFGS
Maximum number of steps                  250
First GDIIS cycle                          0
Maximum GDIIS vectors                      0
Trust radius (bohr)                        0.200000
Trust radius varies                        T
Constraints converged at all steps         T
Use projector                              T
 
 Rigid motions settings for: old optimizer
 Atomic rotations (x,y,z):     T T T
 Atomic translations (x,y,z):  T T T
 Tolerance:                   1.000000000000000E-006
 
--------
Geometry
--------
Formula: H2Cl5O2Pa
Atoms
  Index Symbol   x (angstrom)   y (angstrom)   z (angstrom)
      1     Pa    -0.00408603    -0.71497670     0.41631034       adf.R=2.200
      2     Cl    -0.90173868     1.74139497    -0.36230843       adf.R=1.725
      3     Cl     1.65895178    -2.39167331     1.82936848       adf.R=1.725
      4     Cl     1.40456435     0.99164956     1.99595002       adf.R=1.725
      5     Cl    -1.76163539    -1.24691102    -1.66902213       adf.R=1.725
      6     Cl     1.87902094    -0.58714914    -1.40666917       adf.R=1.725
      7      O    -1.33887688    -0.86766885     1.65466380       adf.R=1.517
      8      O    -0.37386857    -3.20071322    -0.07620364       adf.R=1.517
      9      H    -0.73668352    -3.39216090    -0.94916916       adf.R=1.350
     10      H     0.35682207    -3.80204931     0.10472576       adf.R=1.350
 
Total System Charge            -2.00000
Bonding info available!
 
 
----------------
ADF Engine Input
----------------
 
 Basis
 Type TZ2P
 Core None
 End
 XC
 Hybrid PBE0
 DISPERSION GRIMME3 BJDAMP
 End
 Solvation
 Surf Delley
 Solv name=Water cav0=0.0 cav1=0.0067639
 Charged method=CONJ
 C-Mat POT
 SCF VAR ALL
 CSMRSP
 End
 NumericalQuality Good
 MBPT
 SigmaFunctionalParametrization W1
 End
 

 Title: *** (NO TITLE) ***

 Using automatic Hessian for delocalized coordinates.
 *** GO1_GOStep1 ***

 SOLVATION
-------------------------------------------

  The Delley construction of COSMO surface surface is calculated

       Division Level for Surface Triangles (NDIV)                  3
       Final Division Level for Triangles (NFDIV)                   1
       Radius of the Solvent (RSOL)                           1.93000 angstr
  Dielectric Constant (EPSL)                                 78.39000

       COSMO equation is solved iteratively-               conjugate-gradient

       Maximun of Iterations for Charges (NCIX)                  1000
       Criterion for Charge convergence (CCNV)                1.0E-08

  COSMO charges included variationally in SCF

       COSMO included at every SCF cycle

  Geometry-dependent empirical factor                         0.00000

  C-Matrix calculated in cspmtx

  In cspmtx, C-Matrix calculated using fitted potential

-------------------------------------------



 -------------------------------------------
  COSMO surface
  Area             =          624.335
  Volume           =         1149.938
  Number of Points =         1409
 -------------------------------------------
 
 RIHartreeFock Dependency: number of modified vectors:           7
 cosmo_calcen: 0.5 (esolb+esolc) (Hartrees) =   -0.293869

 Solvation energy (screening term,uncorrected) =   -184.405523 kcal/mol

 Solvation energy (dispersion and cavitation terms) =      1.167458 kcal/mol
 Solvation Energy Contributions (Hartrees)
          esola   esolb+esolc
     0.29386888   -0.58773775
 esol last cycle   -0.29386888
  
 Hartree-Fock exchange energy:   -622.394920984146     
 cosmo_calcen: 0.5 (esolb+esolc) (Hartrees) =   -0.293869

 Solvation energy (screening term,uncorrected) =   -184.405505 kcal/mol

 Solvation energy (dispersion and cavitation terms) =      1.167458 kcal/mol
 Solvation Energy Contributions (Hartrees)
          esola   esolb+esolc
     0.29386885   -0.58773769
 esol last cycle   -0.29386885

 Energy gradients wrt nuclear displacements
 ==========================================

     Atom      Cartesian (a.u./angstrom)
                 X         Y         Z
 ----------------------------------------
     1 Pa   -0.000148  0.000061  0.000119
     2 Cl   -0.000774  0.000935 -0.000217
     3 Cl    0.000601 -0.000583  0.000837
     4 Cl    0.000151  0.000848  0.000869
     5 Cl   -0.000829 -0.000387 -0.000813
     6 Cl    0.001176  0.000338 -0.001001
     7 O    -0.000569 -0.000099  0.000382
     8 O     0.000060 -0.000423 -0.000052
     9 H     0.000091 -0.000360 -0.000168
    10 H     0.000242 -0.000330  0.000045
 ----------------------------------------
 Mulliken charges used for AMS results%charges...
 
----------------------------------------------------------------------
Geometry Convergence after Step   1       (Hartree/Angstrom,Angstrom)
----------------------------------------------------------------------
current energy                               -2.83142249 Hartree
energy change                      -2.83142249     0.00001000    F
constrained gradient max            0.00117438     0.00010000    F
constrained gradient rms            0.00054772     0.00006667    F
gradient max                        0.00117438
gradient rms                        0.00054772
cart. step max                      0.00254383     0.00100000    F
cart. step rms                      0.00114505     0.00066667    F
 
 
--------
Geometry
--------
Formula: H2Cl5O2Pa
Atoms
  Index Symbol   x (angstrom)   y (angstrom)   z (angstrom)
      1     Pa    -0.00564703    -0.71523428     0.41775479       adf.R=2.200
      2     Cl    -0.90072374     1.74059585    -0.36320927       adf.R=1.725
      3     Cl     1.65912994    -2.39139743     1.82803172       adf.R=1.725
      4     Cl     1.40527088     0.99091606     1.99472921       adf.R=1.725
      5     Cl    -1.76016608    -1.24696818    -1.66925697       adf.R=1.725
      6     Cl     1.87647711    -0.58909351    -1.40506203       adf.R=1.725
      7      O    -1.34025164    -0.86809652     1.65587009       adf.R=1.517
      8      O    -0.37394835    -3.20029026    -0.07590581       adf.R=1.517
      9      H    -0.73558364    -3.39044483    -0.94950994       adf.R=1.350
     10      H     0.35791264    -3.80024482     0.10420408       adf.R=1.350
 
Total System Charge            -2.00000
Bonding info available!
 
 *** GO1_GOStep2 ***

 SOLVATION
-------------------------------------------

  The Delley construction of COSMO surface surface is calculated

       Division Level for Surface Triangles (NDIV)                  3
       Final Division Level for Triangles (NFDIV)                   1
       Radius of the Solvent (RSOL)                           1.93000 angstr
  Dielectric Constant (EPSL)                                 78.39000

       COSMO equation is solved iteratively-               conjugate-gradient

       Maximun of Iterations for Charges (NCIX)                  1000
       Criterion for Charge convergence (CCNV)                1.0E-08

  COSMO charges included variationally in SCF

       COSMO included at every SCF cycle

  Geometry-dependent empirical factor                         0.00000

  C-Matrix calculated in cspmtx

  In cspmtx, C-Matrix calculated using fitted potential

-------------------------------------------



 -------------------------------------------
  COSMO surface
  Area             =          624.206
  Volume           =         1149.798
  Number of Points =         1410
 -------------------------------------------
 
 RIHartreeFock Dependency: number of modified vectors:           7
 cosmo_calcen: 0.5 (esolb+esolc) (Hartrees) =   -0.293822

 Solvation energy (screening term,uncorrected) =   -184.376150 kcal/mol

 Solvation energy (dispersion and cavitation terms) =      1.167217 kcal/mol
 Solvation Energy Contributions (Hartrees)
          esola   esolb+esolc
     0.29382207   -0.58764413
 esol last cycle   -0.29382207
  
 Hartree-Fock exchange energy:   -622.396149198605     
 cosmo_calcen: 0.5 (esolb+esolc) (Hartrees) =   -0.293822

 Solvation energy (screening term,uncorrected) =   -184.376154 kcal/mol

 Solvation energy (dispersion and cavitation terms) =      1.167217 kcal/mol
 Solvation Energy Contributions (Hartrees)
          esola   esolb+esolc
     0.29382207   -0.58764415
 esol last cycle   -0.29382207

 Energy gradients wrt nuclear displacements
 ==========================================

     Atom      Cartesian (a.u./angstrom)
                 X         Y         Z
 ----------------------------------------
     1 Pa   -0.000665  0.000064  0.000615
     2 Cl   -0.000641  0.000730 -0.000234
     3 Cl    0.000498 -0.000431  0.000623
     4 Cl    0.000115  0.000696  0.000684
     5 Cl   -0.000585 -0.000347 -0.000692
     6 Cl    0.000889  0.000300 -0.000748
     7 O    -0.000073 -0.000092 -0.000077
     8 O     0.000209 -0.000475 -0.000221
     9 H     0.000195 -0.000291  0.000057
    10 H     0.000058 -0.000154 -0.000007
 ----------------------------------------
 Mulliken charges used for AMS results%charges...

 dE(predicted):    -0.48385E-05, dE(actual):    -0.18455E-04, Trust radius:    0.200000, all in a.u.
 
----------------------------------------------------------------------
Geometry Convergence after Step   2       (Hartree/Angstrom,Angstrom)
----------------------------------------------------------------------
current energy                               -2.83144095 Hartree
energy change                      -0.00001845     0.00001000    F
constrained gradient max            0.00088741     0.00010000    F
constrained gradient rms            0.00044831     0.00006667    F
gradient max                        0.00088741
gradient rms                        0.00044831
cart. step max                      0.00623017     0.00100000    F
cart. step rms                      0.00303465     0.00066667    F
 
 
--------
Geometry
--------
Formula: H2Cl5O2Pa
Atoms
  Index Symbol   x (angstrom)   y (angstrom)   z (angstrom)
      1     Pa    -0.00921409    -0.71615310     0.42095446       adf.R=2.200
      2     Cl    -0.89779891     1.73820915    -0.36511045       adf.R=1.725
      3     Cl     1.65862640    -2.39061302     1.82567173       adf.R=1.725
      4     Cl     1.40658137     0.98899319     1.99117074       adf.R=1.725
      5     Cl    -1.75766218    -1.24713935    -1.66865354       adf.R=1.725
      6     Cl     1.87024694    -0.59531055    -1.40129308       adf.R=1.725
      7      O    -1.34384118    -0.86878596     1.65901657       adf.R=1.517
      8      O    -0.37405688    -3.19917563    -0.07527238       adf.R=1.517
      9      H    -0.73215323    -3.38528001    -0.95120288       adf.R=1.350
     10      H     0.36174184    -3.79500263     0.10236470       adf.R=1.350
 
Total System Charge            -2.00000
Bonding info available!
 
 *** GO1_GOStep3 ***

 SOLVATION
-------------------------------------------

  The Delley construction of COSMO surface surface is calculated

       Division Level for Surface Triangles (NDIV)                  3
       Final Division Level for Triangles (NFDIV)                   1
       Radius of the Solvent (RSOL)                           1.93000 angstr
  Dielectric Constant (EPSL)                                 78.39000

       COSMO equation is solved iteratively-               conjugate-gradient

       Maximun of Iterations for Charges (NCIX)                  1000
       Criterion for Charge convergence (CCNV)                1.0E-08

  COSMO charges included variationally in SCF

       COSMO included at every SCF cycle

  Geometry-dependent empirical factor                         0.00000

  C-Matrix calculated in cspmtx

  In cspmtx, C-Matrix calculated using fitted potential

-------------------------------------------



 -------------------------------------------
  COSMO surface
  Area             =          622.842
  Volume           =         1147.510
  Number of Points =         1406
 -------------------------------------------
 
 RIHartreeFock Dependency: number of modified vectors:           7
 cosmo_calcen: 0.5 (esolb+esolc) (Hartrees) =   -0.293723

 Solvation energy (screening term,uncorrected) =   -184.313753 kcal/mol

 Solvation energy (dispersion and cavitation terms) =      1.164666 kcal/mol
 Solvation Energy Contributions (Hartrees)
          esola   esolb+esolc
     0.29372263   -0.58744526
 esol last cycle   -0.29372263
  
 Hartree-Fock exchange energy:   -622.398687334621     
 cosmo_calcen: 0.5 (esolb+esolc) (Hartrees) =   -0.293723

 Solvation energy (screening term,uncorrected) =   -184.313759 kcal/mol

 Solvation energy (dispersion and cavitation terms) =      1.164666 kcal/mol
 Solvation Energy Contributions (Hartrees)
          esola   esolb+esolc
     0.29372264   -0.58744528
 esol last cycle   -0.29372264

 Energy gradients wrt nuclear displacements
 ==========================================

     Atom      Cartesian (a.u./angstrom)
                 X         Y         Z
 ----------------------------------------
     1 Pa   -0.001099  0.000051  0.001064
     2 Cl   -0.000287  0.000151 -0.000189
     3 Cl    0.000194 -0.000001  0.000087
     4 Cl   -0.000088  0.000285  0.000194
     5 Cl    0.000015 -0.000238 -0.000332
     6 Cl    0.000131  0.000195 -0.000053
     7 O     0.000513 -0.000076 -0.000632
     8 O     0.000368 -0.000176 -0.000283
     9 H     0.000237 -0.000189  0.000140
    10 H     0.000017 -0.000003  0.000005
 ----------------------------------------
 Mulliken charges used for AMS results%charges...

 dE(predicted):    -0.93406E-05, dE(actual):    -0.20614E-04, Trust radius:    0.200000, all in a.u.
 
----------------------------------------------------------------------
Geometry Convergence after Step   3       (Hartree/Angstrom,Angstrom)
----------------------------------------------------------------------
current energy                               -2.83146156 Hartree
energy change                      -0.00002061     0.00001000    F
constrained gradient max            0.00106563     0.00010000    F
constrained gradient rms            0.00033942     0.00006667    F
gradient max                        0.00106563
gradient rms                        0.00033942
cart. step max                      0.00201747     0.00100000    F
cart. step rms                      0.00082504     0.00066667    F
 
 
--------
Geometry
--------
Formula: H2Cl5O2Pa
Atoms
  Index Symbol   x (angstrom)   y (angstrom)   z (angstrom)
      1     Pa    -0.00945930    -0.71649487     0.42108055       adf.R=2.200
      2     Cl    -0.89727220     1.73751628    -0.36520040       adf.R=1.725
      3     Cl     1.65754573    -2.39045379     1.82644814       adf.R=1.725
      4     Cl     1.40663324     0.98856348     1.99022222       adf.R=1.725
      5     Cl    -1.75839692    -1.24712366    -1.66753859       adf.R=1.725
      6     Cl     1.86948012    -0.59732802    -1.40101362       adf.R=1.725
      7      O    -1.34433013    -0.86870615     1.65945474       adf.R=1.517
      8      O    -0.37396603    -3.19898511    -0.07526940       adf.R=1.517
      9      H    -0.73091092    -3.38371914    -0.95201474       adf.R=1.350
     10      H     0.36314649    -3.79352693     0.10147695       adf.R=1.350
 
Total System Charge            -2.00000
Bonding info available!
 
 *** GO1_GOStep4 ***

 SOLVATION
-------------------------------------------

  The Delley construction of COSMO surface surface is calculated

       Division Level for Surface Triangles (NDIV)                  3
       Final Division Level for Triangles (NFDIV)                   1
       Radius of the Solvent (RSOL)                           1.93000 angstr
  Dielectric Constant (EPSL)                                 78.39000

       COSMO equation is solved iteratively-               conjugate-gradient

       Maximun of Iterations for Charges (NCIX)                  1000
       Criterion for Charge convergence (CCNV)                1.0E-08

  COSMO charges included variationally in SCF

       COSMO included at every SCF cycle

  Geometry-dependent empirical factor                         0.00000

  C-Matrix calculated in cspmtx

  In cspmtx, C-Matrix calculated using fitted potential

-------------------------------------------



 -------------------------------------------
  COSMO surface
  Area             =          622.791
  Volume           =         1147.475
  Number of Points =         1406
 -------------------------------------------
 
 RIHartreeFock Dependency: number of modified vectors:           7
 cosmo_calcen: 0.5 (esolb+esolc) (Hartrees) =   -0.293732

 Solvation energy (screening term,uncorrected) =   -184.319359 kcal/mol

 Solvation energy (dispersion and cavitation terms) =      1.164571 kcal/mol
 Solvation Energy Contributions (Hartrees)
          esola   esolb+esolc
     0.29373156   -0.58746313
 esol last cycle   -0.29373156
  
 Hartree-Fock exchange energy:   -622.398896364087     
 cosmo_calcen: 0.5 (esolb+esolc) (Hartrees) =   -0.293732

 Solvation energy (screening term,uncorrected) =   -184.319368 kcal/mol

 Solvation energy (dispersion and cavitation terms) =      1.164571 kcal/mol
 Solvation Energy Contributions (Hartrees)
          esola   esolb+esolc
     0.29373158   -0.58746316
 esol last cycle   -0.29373158

 Energy gradients wrt nuclear displacements
 ==========================================

     Atom      Cartesian (a.u./angstrom)
                 X         Y         Z
 ----------------------------------------
     1 Pa   -0.000669  0.000039  0.000657
     2 Cl   -0.000238  0.000020 -0.000127
     3 Cl    0.000110  0.000091  0.000026
     4 Cl   -0.000174  0.000196  0.000100
     5 Cl    0.000080 -0.000191 -0.000240
     6 Cl    0.000002  0.000176  0.000084
     7 O     0.000250 -0.000101 -0.000394
     8 O     0.000329 -0.000066 -0.000212
     9 H     0.000229 -0.000157  0.000084
    10 H     0.000080 -0.000006  0.000023
 ----------------------------------------
 Mulliken charges used for AMS results%charges...
 
----------------------------------------------------------------------
Geometry Convergence after Step   4       (Hartree/Angstrom,Angstrom)
----------------------------------------------------------------------
current energy                               -2.83146122 Hartree
energy change                       0.00000034     0.00001000    T
constrained gradient max            0.00065805     0.00010000    F
constrained gradient rms            0.00020178     0.00006667    F
gradient max                        0.00065805
gradient rms                        0.00020178
cart. step max                      0.00297042     0.00100000    F
cart. step rms                      0.00139925     0.00066667    F
 
 
--------
Geometry
--------
Formula: H2Cl5O2Pa
Atoms
  Index Symbol   x (angstrom)   y (angstrom)   z (angstrom)
      1     Pa    -0.00919694    -0.71699501     0.42072569       adf.R=2.200
      2     Cl    -0.89675423     1.73656433    -0.36519131       adf.R=1.725
      3     Cl     1.65520913    -2.39034887     1.82884977       adf.R=1.725
      4     Cl     1.40648725     0.98804661     1.98917285       adf.R=1.725
      5     Cl    -1.76062527    -1.24737051    -1.66504086       adf.R=1.725
      6     Cl     1.86917589    -0.60029844    -1.40133000       adf.R=1.725
      7      O    -1.34444272    -0.86829935     1.65963645       adf.R=1.517
      8      O    -0.37375694    -3.19880223    -0.07545087       adf.R=1.517
      9      H    -0.72902187    -3.38135697    -0.95343158       adf.R=1.350
     10      H     0.36539577    -3.79139749     0.09970572       adf.R=1.350
 
Total System Charge            -2.00000
Bonding info available!
 
 *** GO1_GOStep5 ***

 SOLVATION
-------------------------------------------

  The Delley construction of COSMO surface surface is calculated

       Division Level for Surface Triangles (NDIV)                  3
       Final Division Level for Triangles (NFDIV)                   1
       Radius of the Solvent (RSOL)                           1.93000 angstr
  Dielectric Constant (EPSL)                                 78.39000

       COSMO equation is solved iteratively-               conjugate-gradient

       Maximun of Iterations for Charges (NCIX)                  1000
       Criterion for Charge convergence (CCNV)                1.0E-08

  COSMO charges included variationally in SCF

       COSMO included at every SCF cycle

  Geometry-dependent empirical factor                         0.00000

  C-Matrix calculated in cspmtx

  In cspmtx, C-Matrix calculated using fitted potential

-------------------------------------------



 -------------------------------------------
  COSMO surface
  Area             =          622.754
  Volume           =         1147.467
  Number of Points =         1406
 -------------------------------------------
 
 RIHartreeFock Dependency: number of modified vectors:           7
 cosmo_calcen: 0.5 (esolb+esolc) (Hartrees) =   -0.293754

 Solvation energy (screening term,uncorrected) =   -184.333606 kcal/mol

 Solvation energy (dispersion and cavitation terms) =      1.164502 kcal/mol
 Solvation Energy Contributions (Hartrees)
          esola   esolb+esolc
     0.29375427   -0.58750854
 esol last cycle   -0.29375427
  
 Hartree-Fock exchange energy:   -622.398954771068     
 cosmo_calcen: 0.5 (esolb+esolc) (Hartrees) =   -0.293754

 Solvation energy (screening term,uncorrected) =   -184.333615 kcal/mol

 Solvation energy (dispersion and cavitation terms) =      1.164502 kcal/mol
 Solvation Energy Contributions (Hartrees)
          esola   esolb+esolc
     0.29375428   -0.58750857
 esol last cycle   -0.29375428

 Energy gradients wrt nuclear displacements
 ==========================================

     Atom      Cartesian (a.u./angstrom)
                 X         Y         Z
 ----------------------------------------
     1 Pa    0.000099  0.000020 -0.000134
     2 Cl   -0.000208 -0.000131 -0.000034
     3 Cl   -0.000002  0.000194  0.000018
     4 Cl   -0.000308  0.000091  0.000018
     5 Cl    0.000138 -0.000170 -0.000049
     6 Cl   -0.000108  0.000167  0.000199
     7 O    -0.000230 -0.000135  0.000045
     8 O     0.000219  0.000084 -0.000081
     9 H     0.000222 -0.000116 -0.000018
    10 H     0.000178 -0.000004  0.000037
 ----------------------------------------
 Mulliken charges used for AMS results%charges...

 dE(predicted):    -0.10965E-05, dE(actual):     0.15957E-05, Trust radius:    0.020000, all in a.u.
 
----------------------------------------------------------------------
Geometry Convergence after Step   5       (Hartree/Angstrom,Angstrom)
----------------------------------------------------------------------
current energy                               -2.83145963 Hartree
energy change                       0.00000160     0.00001000    T
constrained gradient max            0.00016707     0.00010000    F
constrained gradient rms            0.00006897     0.00006667    F
gradient max                        0.00016707
gradient rms                        0.00006897
cart. step max                      0.00072960     0.00100000    T
cart. step rms                      0.00031268     0.00066667    T
 
 
--------
Geometry
--------
Formula: H2Cl5O2Pa
Atoms
  Index Symbol   x (angstrom)   y (angstrom)   z (angstrom)
      1     Pa    -0.00903303    -0.71704831     0.42050584       adf.R=2.200
      2     Cl    -0.89689222     1.73651477    -0.36513015       adf.R=1.725
      3     Cl     1.65456611    -2.39051401     1.82951703       adf.R=1.725
      4     Cl     1.40644561     0.98800288     1.98915311       adf.R=1.725
      5     Cl    -1.76135487    -1.24715703    -1.66460769       adf.R=1.725
      6     Cl     1.86939044    -0.60077886    -1.40166568       adf.R=1.725
      7      O    -1.34425804    -0.86816114     1.65944434       adf.R=1.517
      8      O    -0.37362825    -3.19889509    -0.07539973       adf.R=1.517
      9      H    -0.72870640    -3.38111501    -0.95353650       adf.R=1.350
     10      H     0.36594072    -3.79110611     0.09936529       adf.R=1.350
 
Total System Charge            -2.00000
Bonding info available!
 
 *** GO1_GOStep6 ***

 SOLVATION
-------------------------------------------

  The Delley construction of COSMO surface surface is calculated

       Division Level for Surface Triangles (NDIV)                  3
       Final Division Level for Triangles (NFDIV)                   1
       Radius of the Solvent (RSOL)                           1.93000 angstr
  Dielectric Constant (EPSL)                                 78.39000

       COSMO equation is solved iteratively-               conjugate-gradient

       Maximun of Iterations for Charges (NCIX)                  1000
       Criterion for Charge convergence (CCNV)                1.0E-08

  COSMO charges included variationally in SCF

       COSMO included at every SCF cycle

  Geometry-dependent empirical factor                         0.00000

  C-Matrix calculated in cspmtx

  In cspmtx, C-Matrix calculated using fitted potential

-------------------------------------------



 -------------------------------------------
  COSMO surface
  Area             =          622.768
  Volume           =         1147.495
  Number of Points =         1406
 -------------------------------------------
 
 RIHartreeFock Dependency: number of modified vectors:           7
 cosmo_calcen: 0.5 (esolb+esolc) (Hartrees) =   -0.293754

 Solvation energy (screening term,uncorrected) =   -184.333351 kcal/mol

 Solvation energy (dispersion and cavitation terms) =      1.164528 kcal/mol
 Solvation Energy Contributions (Hartrees)
          esola   esolb+esolc
     0.29375386   -0.58750773
 esol last cycle   -0.29375386
  
 Hartree-Fock exchange energy:   -622.398903045696     
 cosmo_calcen: 0.5 (esolb+esolc) (Hartrees) =   -0.293754

 Solvation energy (screening term,uncorrected) =   -184.333361 kcal/mol

 Solvation energy (dispersion and cavitation terms) =      1.164528 kcal/mol
 Solvation Energy Contributions (Hartrees)
          esola   esolb+esolc
     0.29375388   -0.58750776
 esol last cycle   -0.29375388

 Energy gradients wrt nuclear displacements
 ==========================================

     Atom      Cartesian (a.u./angstrom)
                 X         Y         Z
 ----------------------------------------
     1 Pa    0.000141 -0.000003 -0.000189
     2 Cl   -0.000230 -0.000134 -0.000026
     3 Cl   -0.000021  0.000182  0.000028
     4 Cl   -0.000318  0.000096  0.000035
     5 Cl    0.000101 -0.000139 -0.000052
     6 Cl   -0.000078  0.000168  0.000171
     7 O    -0.000234 -0.000130  0.000051
     8 O     0.000218  0.000069 -0.000036
     9 H     0.000226 -0.000103 -0.000026
    10 H     0.000195 -0.000006  0.000042
 ----------------------------------------
 Mulliken charges used for AMS results%charges...

 dE(predicted):    -0.93017E-07, dE(actual):     0.17486E-05, Trust radius:    0.020000, all in a.u.
 
----------------------------------------------------------------------
Geometry Convergence after Step   6       (Hartree/Angstrom,Angstrom)
----------------------------------------------------------------------
current energy                               -2.83145788 Hartree
energy change                       0.00000175     0.00001000    T
constrained gradient max            0.00020903     0.00010000    F
constrained gradient rms            0.00007090     0.00006667    F
gradient max                        0.00020903
gradient rms                        0.00007090
cart. step max                      0.00112575     0.00100000    F
cart. step rms                      0.00043418     0.00066667    T
 
 
--------
Geometry
--------
Formula: H2Cl5O2Pa
Atoms
  Index Symbol   x (angstrom)   y (angstrom)   z (angstrom)
      1     Pa    -0.00892630    -0.71712708     0.42044281       adf.R=2.200
      2     Cl    -0.89702053     1.73644959    -0.36510932       adf.R=1.725
      3     Cl     1.65385821    -2.39054346     1.83064279       adf.R=1.725
      4     Cl     1.40654094     0.98802905     1.98906848       adf.R=1.725
      5     Cl    -1.76206851    -1.24736036    -1.66401641       adf.R=1.725
      6     Cl     1.86955876    -0.60159353    -1.40196501       adf.R=1.725
      7      O    -1.34406707    -0.86799931     1.65935553       adf.R=1.517
      8      O    -0.37358905    -3.19898760    -0.07544342       adf.R=1.517
      9      H    -0.72849610    -3.38054098    -0.95380033       adf.R=1.350
     10      H     0.36667972    -3.79058423     0.09847076       adf.R=1.350
 
Total System Charge            -2.00000
Bonding info available!
 
 *** GO1_GOStep7 ***

 SOLVATION
-------------------------------------------

  The Delley construction of COSMO surface surface is calculated

       Division Level for Surface Triangles (NDIV)                  3
       Final Division Level for Triangles (NFDIV)                   1
       Radius of the Solvent (RSOL)                           1.93000 angstr
  Dielectric Constant (EPSL)                                 78.39000

       COSMO equation is solved iteratively-               conjugate-gradient

       Maximun of Iterations for Charges (NCIX)                  1000
       Criterion for Charge convergence (CCNV)                1.0E-08

  COSMO charges included variationally in SCF

       COSMO included at every SCF cycle

  Geometry-dependent empirical factor                         0.00000

  C-Matrix calculated in cspmtx

  In cspmtx, C-Matrix calculated using fitted potential

-------------------------------------------



 -------------------------------------------
  COSMO surface
  Area             =          622.789
  Volume           =         1147.544
  Number of Points =         1406
 -------------------------------------------
 
 RIHartreeFock Dependency: number of modified vectors:           7
 cosmo_calcen: 0.5 (esolb+esolc) (Hartrees) =   -0.293738

 Solvation energy (screening term,uncorrected) =   -184.323618 kcal/mol

 Solvation energy (dispersion and cavitation terms) =      1.164568 kcal/mol
 Solvation Energy Contributions (Hartrees)
          esola   esolb+esolc
     0.29373835   -0.58747670
 esol last cycle   -0.29373835
  
 Hartree-Fock exchange energy:   -622.398886299954     
 cosmo_calcen: 0.5 (esolb+esolc) (Hartrees) =   -0.293738

 Solvation energy (screening term,uncorrected) =   -184.323627 kcal/mol

 Solvation energy (dispersion and cavitation terms) =      1.164568 kcal/mol
 Solvation Energy Contributions (Hartrees)
          esola   esolb+esolc
     0.29373837   -0.58747673
 esol last cycle   -0.29373837

 Energy gradients wrt nuclear displacements
 ==========================================

     Atom      Cartesian (a.u./angstrom)
                 X         Y         Z
 ----------------------------------------
     1 Pa    0.000074 -0.000036 -0.000151
     2 Cl   -0.000249 -0.000118 -0.000017
     3 Cl   -0.000016  0.000176  0.000072
     4 Cl   -0.000320  0.000100  0.000056
     5 Cl    0.000083 -0.000148 -0.000041
     6 Cl   -0.000034  0.000169  0.000127
     7 O    -0.000157 -0.000118 -0.000017
     8 O     0.000178  0.000062 -0.000030
     9 H     0.000234 -0.000098 -0.000026
    10 H     0.000206  0.000011  0.000029
 ----------------------------------------
 Mulliken charges used for AMS results%charges...

 dE(predicted):    -0.84516E-07, dE(actual):     0.12012E-05, Trust radius:    0.020000, all in a.u.
 
----------------------------------------------------------------------
Geometry Convergence after Step   7       (Hartree/Angstrom,Angstrom)
----------------------------------------------------------------------
current energy                               -2.83145668 Hartree
energy change                       0.00000120     0.00001000    T
constrained gradient max            0.00014973     0.00010000    F
constrained gradient rms            0.00004822     0.00006667    T
gradient max                        0.00014973
gradient rms                        0.00004822
cart. step max                      0.00049451     0.00100000    T
cart. step rms                      0.00020844     0.00066667    T
 
 
--------
Geometry
--------
Formula: H2Cl5O2Pa
Atoms
  Index Symbol   x (angstrom)   y (angstrom)   z (angstrom)
      1     Pa    -0.00905843    -0.71715306     0.42058275       adf.R=2.200
      2     Cl    -0.89701228     1.73645747    -0.36522547       adf.R=1.725
      3     Cl     1.65358643    -2.39066978     1.83095557       adf.R=1.725
      4     Cl     1.40666402     0.98807080     1.98898794       adf.R=1.725
      5     Cl    -1.76226765    -1.24740833    -1.66388676       adf.R=1.725
      6     Cl     1.86945866    -0.60207461    -1.40198521       adf.R=1.725
      7      O    -1.34414640    -0.86795154     1.65944065       adf.R=1.517
      8      O    -0.37355027    -3.19907248    -0.07536748       adf.R=1.517
      9      H    -0.72837825    -3.38019407    -0.95385264       adf.R=1.350
     10      H     0.36717423    -3.79026230     0.09799650       adf.R=1.350
 
Total System Charge            -2.00000
Bonding info available!
 
 *** GO1_GOStep8 ***

 SOLVATION
-------------------------------------------

  The Delley construction of COSMO surface surface is calculated

       Division Level for Surface Triangles (NDIV)                  3
       Final Division Level for Triangles (NFDIV)                   1
       Radius of the Solvent (RSOL)                           1.93000 angstr
  Dielectric Constant (EPSL)                                 78.39000

       COSMO equation is solved iteratively-               conjugate-gradient

       Maximun of Iterations for Charges (NCIX)                  1000
       Criterion for Charge convergence (CCNV)                1.0E-08

  COSMO charges included variationally in SCF

       COSMO included at every SCF cycle

  Geometry-dependent empirical factor                         0.00000

  C-Matrix calculated in cspmtx

  In cspmtx, C-Matrix calculated using fitted potential

-------------------------------------------



 -------------------------------------------
  COSMO surface
  Area             =          622.797
  Volume           =         1147.572
  Number of Points =         1406
 -------------------------------------------
 
 RIHartreeFock Dependency: number of modified vectors:           7
 cosmo_calcen: 0.5 (esolb+esolc) (Hartrees) =   -0.293719

 Solvation energy (screening term,uncorrected) =   -184.311289 kcal/mol

 Solvation energy (dispersion and cavitation terms) =      1.164582 kcal/mol
 Solvation Energy Contributions (Hartrees)
          esola   esolb+esolc
     0.29371870   -0.58743741
 esol last cycle   -0.29371870
  
 Hartree-Fock exchange energy:   -622.398886271028     
 cosmo_calcen: 0.5 (esolb+esolc) (Hartrees) =   -0.293719

 Solvation energy (screening term,uncorrected) =   -184.311299 kcal/mol

 Solvation energy (dispersion and cavitation terms) =      1.164582 kcal/mol
 Solvation Energy Contributions (Hartrees)
          esola   esolb+esolc
     0.29371872   -0.58743744
 esol last cycle   -0.29371872

 Energy gradients wrt nuclear displacements
 ==========================================

     Atom      Cartesian (a.u./angstrom)
                 X         Y         Z
 ----------------------------------------
     1 Pa   -0.000033 -0.000051 -0.000060
     2 Cl   -0.000255 -0.000105 -0.000025
     3 Cl   -0.000014  0.000162  0.000075
     4 Cl   -0.000310  0.000111  0.000064
     5 Cl    0.000078 -0.000144 -0.000052
     6 Cl   -0.000011  0.000167  0.000102
     7 O    -0.000085 -0.000113 -0.000083
     8 O     0.000183  0.000047 -0.000019
     9 H     0.000237 -0.000092 -0.000025
    10 H     0.000209  0.000018  0.000024
 ----------------------------------------
 Mulliken charges used for AMS results%charges...

 dE(predicted):    -0.35212E-07, dE(actual):    -0.10327E-05, Trust radius:    0.020000, all in a.u.
 
---------------------------------------------------------
Geometry Convergence after Step   8       ** CONVERGED **
---------------------------------------------------------
current energy                               -2.83145771 Hartree
energy change                      -0.00000103     0.00001000    T
constrained gradient max            0.00008164     0.00010000    T
constrained gradient rms            0.00002603     0.00006667    T
gradient max                        0.00008164
gradient rms                        0.00002603
cart. step max                      0.00088261     0.00100000    T
cart. step rms                      0.00036715     0.00066667    T
 
Geometry optimization converged

Optimized geometry:
 
--------
Geometry
--------
Formula: H2Cl5O2Pa
Atoms
  Index Symbol   x (angstrom)   y (angstrom)   z (angstrom)
      1     Pa    -0.00905843    -0.71715306     0.42058275       adf.R=2.200
      2     Cl    -0.89701228     1.73645747    -0.36522547       adf.R=1.725
      3     Cl     1.65358643    -2.39066978     1.83095557       adf.R=1.725
      4     Cl     1.40666402     0.98807080     1.98898794       adf.R=1.725
      5     Cl    -1.76226765    -1.24740833    -1.66388676       adf.R=1.725
      6     Cl     1.86945866    -0.60207461    -1.40198521       adf.R=1.725
      7      O    -1.34414640    -0.86795154     1.65944065       adf.R=1.517
      8      O    -0.37355027    -3.19907248    -0.07536748       adf.R=1.517
      9      H    -0.72837825    -3.38019407    -0.95385264       adf.R=1.350
     10      H     0.36717423    -3.79026230     0.09799650       adf.R=1.350
 
Total System Charge            -2.00000
Bonding info available!
 
Performing a single point calculation on the final geometry ...

 *** adf ***



 ===========================
 A T T A C H E D   F I L E S
 ===========================
  
 Restart
 /state/partition2/shaaban/1032752.phlam-s-sakura/amstmp_pao_cl5_h2o.pbe0-D3BJ.t
 z2p.opt-freq-solvation_kid0.1766312461/GO1_GOStep8.rkf*** GO1_GOStep8 ***



 ===============================
 M O D E L   P A R A M E T E R S
 ===============================
  
 DENSITY FUNCTIONAL POTENTIAL (scf)
    Hybrid:                            PBE0                                    == Not Default ==

 SPIN  (restricted / unrestr.)
    Molecule:                          Restricted                               
    Fragments:                         Restricted                               

 OTHER ASPECTS
    Relativistic Corrections:          scalar (ZORA,MAPA)                       

    Nuclear Charge Density Model:      Point Charge Nuclei                      
    Core Treatment:                    Frozen Orbital(s)                        

    Hyperfine or Zeeman Interaction:   ---                                      

 Settings for Grimme D3 dispersion correction

      damping                        BJ
      s6                          1.000
      s8                          1.218
      a1                          0.414
      a2                          4.859

 Other (technical) parameters

      alpha                      14.000
      version                         4
 

 SOLVATION
-------------------------------------------

  The Delley construction of COSMO surface surface is calculated

       Division Level for Surface Triangles (NDIV)                  3
       Final Division Level for Triangles (NFDIV)                   1
       Radius of the Solvent (RSOL)                           1.93000 angstr
  Dielectric Constant (EPSL)                                 78.39000

       COSMO equation is solved iteratively-               conjugate-gradient

       Maximun of Iterations for Charges (NCIX)                  1000
       Criterion for Charge convergence (CCNV)                1.0E-08

  COSMO charges included variationally in SCF

       COSMO included at every SCF cycle

  Geometry-dependent empirical factor                         0.00000

  C-Matrix calculated in cspmtx

  In cspmtx, C-Matrix calculated using fitted potential

-------------------------------------------




 ===============
 G E O M E T R Y  ***  3D  Molecule  ***
 ===============
  

 ATOMS
 =====                            X Y Z                    CHARGE                     RADIUS
                                (Angstrom)             Nucl     +Core       At.Mass (Angstrom)
                       --------------------------    ----------------       ------- ----------
    1  Pa             -0.0091   -0.7172    0.4206     91.00     91.00      231.0359    2.2000
    2  Cl             -0.8970    1.7365   -0.3652     17.00     17.00       34.9689    1.7250
    3  Cl              1.6536   -2.3907    1.8310     17.00     17.00       34.9689    1.7250
    4  Cl              1.4067    0.9881    1.9890     17.00     17.00       34.9689    1.7250
    5  Cl             -1.7623   -1.2474   -1.6639     17.00     17.00       34.9689    1.7250
    6  Cl              1.8695   -0.6021   -1.4020     17.00     17.00       34.9689    1.7250
    7  O              -1.3441   -0.8680    1.6594      8.00      8.00       15.9949    1.5170
    8  O              -0.3736   -3.1991   -0.0754      8.00      8.00       15.9949    1.5170
    9  H              -0.7284   -3.3802   -0.9539      1.00      1.00        1.0078    1.3500
   10  H               0.3672   -3.7903    0.0980      1.00      1.00        1.0078    1.3500


 FRAGMENTS
 =========                                     Atoms in this Fragment     Cart. coord.s (Angstrom)
                                               -------------------------------------------------------
    1  Pa                                                1  Pa          -0.0091   -0.7172    0.4206
    2  Cl                                                2  Cl          -0.8970    1.7365   -0.3652
    3  Cl                                                3  Cl           1.6536   -2.3907    1.8310
    4  Cl                                                4  Cl           1.4067    0.9881    1.9890
    5  Cl                                                5  Cl          -1.7623   -1.2474   -1.6639
    6  Cl                                                6  Cl           1.8695   -0.6021   -1.4020
    7  O                                                 7  O           -1.3441   -0.8680    1.6594
    8  O                                                 8  O           -0.3736   -3.1991   -0.0754
    9  H                                                 9  H           -0.7284   -3.3802   -0.9539
   10  H                                                10  H            0.3672   -3.7903    0.0980


 Interatomic Distance Matrix (Angstrom)
 --------------------------------------

   1)     0.000
   2)     2.725   0.000
   3)     2.748   5.326   0.000
   4)     2.715   3.378   3.391   0.000
   5)     2.775   3.367   5.019   5.328   0.000
   6)     2.620   3.768   3.701   3.774   3.698   0.000
   7)     1.828   3.329   3.367   3.335   3.371   4.446   0.000
   8)     2.557   4.972   2.898   4.996   2.874   3.679   3.064   0.000
   9)     3.082   5.153   3.796   5.683   2.474   3.830   3.677   0.965   0.000
  10)     3.113   5.688   2.572   5.243   3.756   3.830   3.729   0.963   1.573   0.000

 Min. Distance =    0.9634
 Max. Distance =    5.6884



 =====================================
 S Y M M E T R Y ,   E L E C T R O N S
 =====================================
  
 Symmetry: NOSYM

 Irreducible Representations, including subspecies
 -------------------------------------------------
 A

 Symmetry is NOT used when fitting density


 Configuration of Valence Electrons
 ==================================
 ( determined in the SCF procedure )

 Total:   196

 Net Charge: -2 (Nuclei minus Electrons)

 Aufbau principle for MO occupations will be applied through SCF cycle no.     150
 Thereafter, the program will assign electrons to MOs that are spatially
 similar to the occupied MOs in a "reference" cycle ("KeepOrbitals").
 The reference cycle is always the PREVIOUS cycle: it will evolve with
 the SCF procedure.
1
 ***************************************************************************************************



                                      ****************************************
                                      *  B U I L D : (Fragments, Functions)  *
                                      ****************************************
  



 =======
 S F O s  ***  (Symmetrized Fragment Orbitals)  ***
 =======
  
 SFOs are linear combinations of (valence) Fragment Orbitals (FOs), such that the SFOs transform as the
 irreducible representations of the (molecular) symmetry group. Each SFO is therefore characterized by
 an irrep of the molecule and by a few (or only one) generating FOs.
 The SFOs constitute a symmetry-adapted basis for the Fock matrix. The MO eigenvector coefficients in
 this basis provide a direct interpretation of the MOs in terms of Frontier Orbital Theory.

 The SFOs are combined with auxiliary Core Functions (CFs) to ensure orthogonalization on the (frozen)
 Core Orbitals (COs). The Core-orthogonalized SFOs (CSFOs) constitute the true Fock basis.

 The FOs, and hence also the (C)SFOs are combinations of the elementary basis functions (BAS). The basis
 functions that participate in the description of the SFOs depend on the irrep. The indices of the
 involved functions are printed below for each irrep.
 (The complete list of primitive basis functions is printed in another section)

 Total nr. of (C)SFOs (summation over all irreps) :   379

 NOTE: a (C)SFO that is defined as a combination of more than one FO is usually NOT normalized.



                                       === A ===
 Nr. of SFOs :  379
 Cartesian basis functions that participate in this irrep (total number =   433) :
      1     2     3     4     5     6     7     8     9    10
     11    12    13    14    15    16    17    20    23    26
     29    32    35    38    41    44    47    50   157    18
     21    24    27    30    33    36    39    42    45    48
     51   158    19    22    25    28    31    34    37    40
     43    46    49    52   159    53    59    65    71    77
     83    89    95   101    54    60    66    72    78    84
     90    96   102    55    61    67    73    79    85    91
     97   103    56    62    68    74    80    86    92    98
    104    57    63    69    75    81    87    93    99   105
     58    64    70    76    82    88    94   100   106   107
    117   127   137   147   108   118   128   138   148   109
    119   129   139   149   110   120   130   140   150   111
    121   131   141   151   112   122   132   142   152   113
    123   133   143   153   114   124   134   144   154   115
    125   135   145   155   116   126   136   146   156   160
    161   162   163   170   171   172   164   167   173   176
    179   165   168   174   177   180   166   169   175   178
    181   182   183   184   185   186   187   188   189   190
    191   192   193   194   195   196   197   198   199   200
    201   208   209   210   202   205   211   214   217   203
    206   212   215   218   204   207   213   216   219   220
    221   222   223   224   225   226   227   228   229   230
    231   232   233   234   235   236   237   238   239   246
    247   248   240   243   249   252   255   241   244   250
    253   256   242   245   251   254   257   258   259   260
    261   262   263   264   265   266   267   268   269   270
    271   272   273   274   275   276   277   284   285   286
    278   281   287   290   293   279   282   288   291   294
    280   283   289   292   295   296   297   298   299   300
    301   302   303   304   305   306   307   308   309   310
    311   312   313   314   315   322   323   324   316   319
    325   328   331   317   320   326   329   332   318   321
    327   330   333   334   335   336   337   338   339   340
    341   342   343   344   345   346   347   348   349   350
    351   352   353   354   355   358   361   356   359   362
    357   360   363   364   365   366   367   368   369   370
    371   372   373   374   375   376   377   378   379   380
    381   382   383   384   385   388   391   386   389   392
    387   390   393   394   395   396   397   398   399   400
    401   402   403   404   405   406   407   408   409   410
    411   412   413   414   415   416   417   418   419   420
    421   422   423   424   425   426   427   428   429   430
    431   432   433

    SFO  (index         Fragment          Generating    Expansion in Fragment Orbitals
  indx  incl.CFs)   Occup   Orb.Energy   FragmentType  Coeff.   Orbital     on Fragment
 --------------------------------------------------------------------------------------
     1       1      2.000   -4141.526 au  Pa            1.00      1 S               1
                        ( -112696.657 eV)
     2       2      2.000    -772.998 au  Pa            1.00      2 S               1
                        (  -21034.347 eV)
     3       3      2.000    -195.328 au  Pa            1.00      3 S               1
                        (   -5315.156 eV)
     4       4      2.000     -49.855 au  Pa            1.00      4 S               1
                        (   -1356.621 eV)
     5       5      2.000     -11.133 au  Pa            1.00      5 S               1
                        (    -302.952 eV)
     6       6      2.000      -1.795 au  Pa            1.00      6 S               1
                        (     -48.841 eV)
     7       7      2.000      -0.175 au  Pa            1.00      7 S               1
                        (      -4.760 eV)
     8       8       --         0.034 au  Pa            1.00      8 S               1
                        (       0.919 eV)
     9       9       --         0.339 au  Pa            1.00      9 S               1
                        (       9.238 eV)
    10      10       --         1.683 au  Pa            1.00     10 S               1
                        (      45.798 eV)
    11      11       --         8.710 au  Pa            1.00     11 S               1
                        (     237.014 eV)
    12      12       --        46.395 au  Pa            1.00     12 S               1
                        (    1262.476 eV)
    13      13       --      1052.783 au  Pa            1.00     13 S               1
                        (   28647.695 eV)
    14      14       --      5424.849 au  Pa            1.00     14 S               1
                        (  147617.662 eV)
    15      15       --     16328.088 au  Pa            1.00     15 S               1
                        (  444309.889 eV)
    16      16       --     46435.709 au  Pa            1.00     16 S               1
                        ( 1263579.939 eV)
    17      17      2.000    -645.265 au  Pa            1.00      1 P:x             1
                        (  -17558.565 eV)
    18      18      2.000    -159.642 au  Pa            1.00      2 P:x             1
                        (   -4344.092 eV)
    19      19      2.000     -38.162 au  Pa            1.00      3 P:x             1
                        (   -1038.447 eV)
    20      20      2.000      -7.518 au  Pa            1.00      4 P:x             1
                        (    -204.571 eV)
    21      21      2.000      -0.902 au  Pa            1.00      5 P:x             1
                        (     -24.533 eV)
    22      22       --        -0.009 au  Pa            1.00      6 P:x             1
                        (      -0.239 eV)
    23      23       --         0.410 au  Pa            1.00      7 P:x             1
                        (      11.153 eV)
    24      24       --         1.860 au  Pa            1.00      8 P:x             1
                        (      50.626 eV)
    25      25       --         7.599 au  Pa            1.00      9 P:x             1
                        (     206.767 eV)
    26      26       --        36.007 au  Pa            1.00     10 P:x             1
                        (     979.808 eV)
    27      27       --       178.692 au  Pa            1.00     11 P:x             1
                        (    4862.446 eV)
    28      28       --      1510.091 au  Pa            1.00     12 P:x             1
                        (   41091.664 eV)
    29      29       --     10784.724 au  Pa            1.00     13 P:x             1
                        (  293467.260 eV)
    30      30      2.000    -645.265 au  Pa            1.00      1 P:y             1
                        (  -17558.565 eV)
    31      31      2.000    -159.642 au  Pa            1.00      2 P:y             1
                        (   -4344.092 eV)
    32      32      2.000     -38.162 au  Pa            1.00      3 P:y             1
                        (   -1038.447 eV)
    33      33      2.000      -7.518 au  Pa            1.00      4 P:y             1
                        (    -204.571 eV)
    34      34      2.000      -0.902 au  Pa            1.00      5 P:y             1
                        (     -24.533 eV)
    35      35       --        -0.009 au  Pa            1.00      6 P:y             1
                        (      -0.239 eV)
    36      36       --         0.410 au  Pa            1.00      7 P:y             1
                        (      11.153 eV)
    37      37       --         1.860 au  Pa            1.00      8 P:y             1
                        (      50.626 eV)
    38      38       --         7.599 au  Pa            1.00      9 P:y             1
                        (     206.767 eV)
    39      39       --        36.007 au  Pa            1.00     10 P:y             1
                        (     979.808 eV)
    40      40       --       178.692 au  Pa            1.00     11 P:y             1
                        (    4862.446 eV)
    41      41       --      1510.091 au  Pa            1.00     12 P:y             1
                        (   41091.664 eV)
    42      42       --     10784.724 au  Pa            1.00     13 P:y             1
                        (  293467.260 eV)
    43      43      2.000    -645.265 au  Pa            1.00      1 P:z             1
                        (  -17558.565 eV)
    44      44      2.000    -159.642 au  Pa            1.00      2 P:z             1
                        (   -4344.092 eV)
    45      45      2.000     -38.162 au  Pa            1.00      3 P:z             1
                        (   -1038.447 eV)
    46      46      2.000      -7.518 au  Pa            1.00      4 P:z             1
                        (    -204.571 eV)
    47      47      2.000      -0.902 au  Pa            1.00      5 P:z             1
                        (     -24.533 eV)
    48      48       --        -0.009 au  Pa            1.00      6 P:z             1
                        (      -0.239 eV)
    49      49       --         0.410 au  Pa            1.00      7 P:z             1
                        (      11.153 eV)
    50      50       --         1.860 au  Pa            1.00      8 P:z             1
                        (      50.626 eV)
    51      51       --         7.599 au  Pa            1.00      9 P:z             1
                        (     206.767 eV)
    52      52       --        36.007 au  Pa            1.00     10 P:z             1
                        (     979.808 eV)
    53      53       --       178.692 au  Pa            1.00     11 P:z             1
                        (    4862.446 eV)
    54      54       --      1510.091 au  Pa            1.00     12 P:z             1
                        (   41091.664 eV)
    55      55       --     10784.724 au  Pa            1.00     13 P:z             1
                        (  293467.260 eV)
    56      56      2.000    -127.956 au  Pa            1.00      1 D:z2            1
                        (   -3481.863 eV)
    57      57      2.000     -26.098 au  Pa            1.00      2 D:z2            1
                        (    -710.150 eV)
    58      58      2.000      -3.589 au  Pa            1.00      3 D:z2            1
                        (     -97.672 eV)
    59      59      0.200      -0.066 au  Pa            1.00      4 D:z2            1
                        (      -1.800 eV)
    60      60       --         0.087 au  Pa            1.00      5 D:z2            1
                        (       2.364 eV)
    61      61       --         0.570 au  Pa            1.00      6 D:z2            1
                        (      15.503 eV)
    62      62       --         3.614 au  Pa            1.00      7 D:z2            1
                        (      98.350 eV)
    63      63       --        25.065 au  Pa            1.00      8 D:z2            1
                        (     682.063 eV)
    64      64       --       205.007 au  Pa            1.00      9 D:z2            1
                        (    5578.517 eV)
    65      65      2.000    -127.956 au  Pa            1.00      1 D:x2-y2         1
                        (   -3481.863 eV)
    66      66      2.000     -26.098 au  Pa            1.00      2 D:x2-y2         1
                        (    -710.150 eV)
    67      67      2.000      -3.589 au  Pa            1.00      3 D:x2-y2         1
                        (     -97.672 eV)
    68      68      0.200      -0.066 au  Pa            1.00      4 D:x2-y2         1
                        (      -1.800 eV)
    69      69       --         0.087 au  Pa            1.00      5 D:x2-y2         1
                        (       2.364 eV)
    70      70       --         0.570 au  Pa            1.00      6 D:x2-y2         1
                        (      15.503 eV)
    71      71       --         3.614 au  Pa            1.00      7 D:x2-y2         1
                        (      98.350 eV)
    72      72       --        25.065 au  Pa            1.00      8 D:x2-y2         1
                        (     682.063 eV)
    73      73       --       205.007 au  Pa            1.00      9 D:x2-y2         1
                        (    5578.517 eV)
    74      74      2.000    -127.956 au  Pa            1.00      1 D:xy            1
                        (   -3481.863 eV)
    75      75      2.000     -26.098 au  Pa            1.00      2 D:xy            1
                        (    -710.150 eV)
    76      76      2.000      -3.589 au  Pa            1.00      3 D:xy            1
                        (     -97.672 eV)
    77      77      0.200      -0.066 au  Pa            1.00      4 D:xy            1
                        (      -1.800 eV)
    78      78       --         0.087 au  Pa            1.00      5 D:xy            1
                        (       2.364 eV)
    79      79       --         0.570 au  Pa            1.00      6 D:xy            1
                        (      15.503 eV)
    80      80       --         3.614 au  Pa            1.00      7 D:xy            1
                        (      98.350 eV)
    81      81       --        25.065 au  Pa            1.00      8 D:xy            1
                        (     682.063 eV)
    82      82       --       205.007 au  Pa            1.00      9 D:xy            1
                        (    5578.517 eV)
    83      83      2.000    -127.956 au  Pa            1.00      1 D:xz            1
                        (   -3481.863 eV)
    84      84      2.000     -26.098 au  Pa            1.00      2 D:xz            1
                        (    -710.150 eV)
    85      85      2.000      -3.589 au  Pa            1.00      3 D:xz            1
                        (     -97.672 eV)
    86      86      0.200      -0.066 au  Pa            1.00      4 D:xz            1
                        (      -1.800 eV)
    87      87       --         0.087 au  Pa            1.00      5 D:xz            1
                        (       2.364 eV)
    88      88       --         0.570 au  Pa            1.00      6 D:xz            1
                        (      15.503 eV)
    89      89       --         3.614 au  Pa            1.00      7 D:xz            1
                        (      98.350 eV)
    90      90       --        25.065 au  Pa            1.00      8 D:xz            1
                        (     682.063 eV)
    91      91       --       205.007 au  Pa            1.00      9 D:xz            1
                        (    5578.517 eV)
    92      92      2.000    -127.956 au  Pa            1.00      1 D:yz            1
                        (   -3481.863 eV)
    93      93      2.000     -26.098 au  Pa            1.00      2 D:yz            1
                        (    -710.150 eV)
    94      94      2.000      -3.589 au  Pa            1.00      3 D:yz            1
                        (     -97.672 eV)
    95      95      0.200      -0.066 au  Pa            1.00      4 D:yz            1
                        (      -1.800 eV)
    96      96       --         0.087 au  Pa            1.00      5 D:yz            1
                        (       2.364 eV)
    97      97       --         0.570 au  Pa            1.00      6 D:yz            1
                        (      15.503 eV)
    98      98       --         3.614 au  Pa            1.00      7 D:yz            1
                        (      98.350 eV)
    99      99       --        25.065 au  Pa            1.00      8 D:yz            1
                        (     682.063 eV)
   100     100       --       205.007 au  Pa            1.00      9 D:yz            1
                        (    5578.517 eV)
   101     101      2.000     -13.166 au  Pa            1.00      1 F:z3            1
                        (    -358.254 eV)
   102     102      0.286      -0.038 au  Pa            1.00      2 F:z3            1
                        (      -1.040 eV)
   103     103       --         0.423 au  Pa            1.00      3 F:z3            1
                        (      11.518 eV)
   104     104       --         2.565 au  Pa            1.00      4 F:z3            1
                        (      69.799 eV)
   105     105       --        21.684 au  Pa            1.00      5 F:z3            1
                        (     590.042 eV)
   106     106      2.000     -13.166 au  Pa            1.00      1 F:z             1
                        (    -358.254 eV)
   107     107      0.286      -0.038 au  Pa            1.00      2 F:z             1
                        (      -1.040 eV)
   108     108       --         0.423 au  Pa            1.00      3 F:z             1
                        (      11.518 eV)
   109     109       --         2.565 au  Pa            1.00      4 F:z             1
                        (      69.799 eV)
   110     110       --        21.684 au  Pa            1.00      5 F:z             1
                        (     590.042 eV)
   111     111      2.000     -13.166 au  Pa            1.00      1 F:xyz           1
                        (    -358.254 eV)
   112     112      0.286      -0.038 au  Pa            1.00      2 F:xyz           1
                        (      -1.040 eV)
   113     113       --         0.423 au  Pa            1.00      3 F:xyz           1
                        (      11.518 eV)
   114     114       --         2.565 au  Pa            1.00      4 F:xyz           1
                        (      69.799 eV)
   115     115       --        21.684 au  Pa            1.00      5 F:xyz           1
                        (     590.042 eV)
   116     116      2.000     -13.166 au  Pa            1.00      1 F:z2x           1
                        (    -358.254 eV)
   117     117      0.286      -0.038 au  Pa            1.00      2 F:z2x           1
                        (      -1.040 eV)
   118     118       --         0.423 au  Pa            1.00      3 F:z2x           1
                        (      11.518 eV)
   119     119       --         2.565 au  Pa            1.00      4 F:z2x           1
                        (      69.799 eV)
   120     120       --        21.684 au  Pa            1.00      5 F:z2x           1
                        (     590.042 eV)
   121     121      2.000     -13.166 au  Pa            1.00      1 F:z2y           1
                        (    -358.254 eV)
   122     122      0.286      -0.038 au  Pa            1.00      2 F:z2y           1
                        (      -1.040 eV)
   123     123       --         0.423 au  Pa            1.00      3 F:z2y           1
                        (      11.518 eV)
   124     124       --         2.565 au  Pa            1.00      4 F:z2y           1
                        (      69.799 eV)
   125     125       --        21.684 au  Pa            1.00      5 F:z2y           1
                        (     590.042 eV)
   126     126      2.000     -13.166 au  Pa            1.00      1 F:x             1
                        (    -358.254 eV)
   127     127      0.286      -0.038 au  Pa            1.00      2 F:x             1
                        (      -1.040 eV)
   128     128       --         0.423 au  Pa            1.00      3 F:x             1
                        (      11.518 eV)
   129     129       --         2.565 au  Pa            1.00      4 F:x             1
                        (      69.799 eV)
   130     130       --        21.684 au  Pa            1.00      5 F:x             1
                        (     590.042 eV)
   131     131      2.000     -13.166 au  Pa            1.00      1 F:y             1
                        (    -358.254 eV)
   132     132      0.286      -0.038 au  Pa            1.00      2 F:y             1
                        (      -1.040 eV)
   133     133       --         0.423 au  Pa            1.00      3 F:y             1
                        (      11.518 eV)
   134     134       --         2.565 au  Pa            1.00      4 F:y             1
                        (      69.799 eV)
   135     135       --        21.684 au  Pa            1.00      5 F:y             1
                        (     590.042 eV)
   136     136      2.000    -102.119 au  Cl            1.00      1 S               2
                        (   -2778.789 eV)
   137     137      2.000      -9.646 au  Cl            1.00      2 S               2
                        (    -262.471 eV)
   138     138      2.000      -0.854 au  Cl            1.00      3 S               2
                        (     -23.229 eV)
   139     139       --         0.235 au  Cl            1.00      4 S               2
                        (       6.405 eV)
   140     140       --         2.083 au  Cl            1.00      5 S               2
                        (      56.675 eV)
   141     141       --        12.853 au  Cl            1.00      6 S               2
                        (     349.740 eV)
   142     142       --       206.451 au  Cl            1.00      7 S               2
                        (    5617.823 eV)
   143     143      2.000      -7.311 au  Cl            1.00      1 P:x             2
                        (    -198.932 eV)
   144     144      1.667      -0.356 au  Cl            1.00      2 P:x             2
                        (      -9.674 eV)
   145     145       --         0.265 au  Cl            1.00      3 P:x             2
                        (       7.199 eV)
   146     146       --         2.208 au  Cl            1.00      4 P:x             2
                        (      60.081 eV)
   147     147       --        19.015 au  Cl            1.00      5 P:x             2
                        (     517.415 eV)
   148     148      2.000      -7.311 au  Cl            1.00      1 P:y             2
                        (    -198.932 eV)
   149     149      1.667      -0.356 au  Cl            1.00      2 P:y             2
                        (      -9.674 eV)
   150     150       --         0.265 au  Cl            1.00      3 P:y             2
                        (       7.199 eV)
   151     151       --         2.208 au  Cl            1.00      4 P:y             2
                        (      60.081 eV)
   152     152       --        19.015 au  Cl            1.00      5 P:y             2
                        (     517.415 eV)
   153     153      2.000      -7.311 au  Cl            1.00      1 P:z             2
                        (    -198.932 eV)
   154     154      1.667      -0.356 au  Cl            1.00      2 P:z             2
                        (      -9.674 eV)
   155     155       --         0.265 au  Cl            1.00      3 P:z             2
                        (       7.199 eV)
   156     156       --         2.208 au  Cl            1.00      4 P:z             2
                        (      60.081 eV)
   157     157       --        19.015 au  Cl            1.00      5 P:z             2
                        (     517.415 eV)
   158     158       --         0.444 au  Cl            1.00      1 D:z2            2
                        (      12.084 eV)
   159     159       --         0.444 au  Cl            1.00      1 D:x2-y2         2
                        (      12.084 eV)
   160     160       --         0.444 au  Cl            1.00      1 D:xy            2
                        (      12.084 eV)
   161     161       --         0.444 au  Cl            1.00      1 D:xz            2
                        (      12.084 eV)
   162     162       --         0.444 au  Cl            1.00      1 D:yz            2
                        (      12.084 eV)
   163     163       --         1.251 au  Cl            1.00      1 F:z3            2
                        (      34.044 eV)
   164     164       --         1.251 au  Cl            1.00      1 F:z             2
                        (      34.044 eV)
   165     165       --         1.251 au  Cl            1.00      1 F:xyz           2
                        (      34.044 eV)
   166     166       --         1.251 au  Cl            1.00      1 F:z2x           2
                        (      34.044 eV)
   167     167       --         1.251 au  Cl            1.00      1 F:z2y           2
                        (      34.044 eV)
   168     168       --         1.251 au  Cl            1.00      1 F:x             2
                        (      34.044 eV)
   169     169       --         1.251 au  Cl            1.00      1 F:y             2
                        (      34.044 eV)
   170     170      2.000    -102.119 au  Cl            1.00      1 S               3
                        (   -2778.789 eV)
   171     171      2.000      -9.646 au  Cl            1.00      2 S               3
                        (    -262.471 eV)
   172     172      2.000      -0.854 au  Cl            1.00      3 S               3
                        (     -23.229 eV)
   173     173       --         0.235 au  Cl            1.00      4 S               3
                        (       6.405 eV)
   174     174       --         2.083 au  Cl            1.00      5 S               3
                        (      56.675 eV)
   175     175       --        12.853 au  Cl            1.00      6 S               3
                        (     349.740 eV)
   176     176       --       206.451 au  Cl            1.00      7 S               3
                        (    5617.823 eV)
   177     177      2.000      -7.311 au  Cl            1.00      1 P:x             3
                        (    -198.932 eV)
   178     178      1.667      -0.356 au  Cl            1.00      2 P:x             3
                        (      -9.674 eV)
   179     179       --         0.265 au  Cl            1.00      3 P:x             3
                        (       7.199 eV)
   180     180       --         2.208 au  Cl            1.00      4 P:x             3
                        (      60.081 eV)
   181     181       --        19.015 au  Cl            1.00      5 P:x             3
                        (     517.415 eV)
   182     182      2.000      -7.311 au  Cl            1.00      1 P:y             3
                        (    -198.932 eV)
   183     183      1.667      -0.356 au  Cl            1.00      2 P:y             3
                        (      -9.674 eV)
   184     184       --         0.265 au  Cl            1.00      3 P:y             3
                        (       7.199 eV)
   185     185       --         2.208 au  Cl            1.00      4 P:y             3
                        (      60.081 eV)
   186     186       --        19.015 au  Cl            1.00      5 P:y             3
                        (     517.415 eV)
   187     187      2.000      -7.311 au  Cl            1.00      1 P:z             3
                        (    -198.932 eV)
   188     188      1.667      -0.356 au  Cl            1.00      2 P:z             3
                        (      -9.674 eV)
   189     189       --         0.265 au  Cl            1.00      3 P:z             3
                        (       7.199 eV)
   190     190       --         2.208 au  Cl            1.00      4 P:z             3
                        (      60.081 eV)
   191     191       --        19.015 au  Cl            1.00      5 P:z             3
                        (     517.415 eV)
   192     192       --         0.444 au  Cl            1.00      1 D:z2            3
                        (      12.084 eV)
   193     193       --         0.444 au  Cl            1.00      1 D:x2-y2         3
                        (      12.084 eV)
   194     194       --         0.444 au  Cl            1.00      1 D:xy            3
                        (      12.084 eV)
   195     195       --         0.444 au  Cl            1.00      1 D:xz            3
                        (      12.084 eV)
   196     196       --         0.444 au  Cl            1.00      1 D:yz            3
                        (      12.084 eV)
   197     197       --         1.251 au  Cl            1.00      1 F:z3            3
                        (      34.044 eV)
   198     198       --         1.251 au  Cl            1.00      1 F:z             3
                        (      34.044 eV)
   199     199       --         1.251 au  Cl            1.00      1 F:xyz           3
                        (      34.044 eV)
   200     200       --         1.251 au  Cl            1.00      1 F:z2x           3
                        (      34.044 eV)
[...]
 Index  Atom      ---- Displacements (x/y/z) ----
     1    Pa      -0.049768  -0.004572   0.046876
     2    Cl       0.007668  -0.017235   0.003715
     3    Cl      -0.009526   0.011034  -0.010970
     4    Cl      -0.008656  -0.012557  -0.013084
     5    Cl       0.012335   0.003017   0.011161
     6    Cl      -0.008668  -0.000955   0.008357
     7     O       0.727682   0.081791  -0.675191
     8     O       0.008145   0.020259  -0.002136
     9     H      -0.022810  -0.000517   0.017779
    10     H      -0.008957   0.008249   0.014432
 
 Mode:    28      Frequency (cm-1):     1513.5539     Intensity (km/mol):      245.7681
 Index  Atom      ---- Displacements (x/y/z) ----
     1    Pa       0.000099   0.000132  -0.000075
     2    Cl       0.000065   0.000068   0.000087
     3    Cl       0.000210   0.000847   0.000383
     4    Cl      -0.000033   0.000107  -0.000021
     5    Cl      -0.000054   0.001095   0.000026
     6    Cl      -0.000013   0.000005   0.000010
     7     O      -0.000307  -0.000407   0.000189
     8     O       0.021145  -0.057257  -0.043602
     9     H      -0.478704   0.513200   0.060771
    10     H       0.119203   0.298093   0.628552
 
 Mode:    29      Frequency (cm-1):     3766.8050     Intensity (km/mol):       65.2193
 Index  Atom      ---- Displacements (x/y/z) ----
     1    Pa      -0.000008   0.000047   0.000018
     2    Cl       0.000018  -0.000015   0.000019
     3    Cl      -0.000049   0.000050  -0.000042
     4    Cl      -0.000020  -0.000010  -0.000023
     5    Cl       0.000065   0.000052   0.000094
     6    Cl      -0.000032  -0.000019   0.000029
     7     O       0.000134  -0.000065  -0.000143
     8     O      -0.010447   0.031711   0.036269
     9     H      -0.305394  -0.141571  -0.710917
    10     H       0.471409  -0.373521   0.130828
 
 Mode:    30      Frequency (cm-1):     3869.3275     Intensity (km/mol):      258.7916
 Index  Atom      ---- Displacements (x/y/z) ----
     1    Pa       0.000005  -0.000001   0.000008
     2    Cl      -0.000005  -0.000009  -0.000005
     3    Cl      -0.000061   0.000057  -0.000026
     4    Cl      -0.000003   0.000005  -0.000003
     5    Cl      -0.000020  -0.000034  -0.000068
     6    Cl      -0.000005  -0.000002   0.000002
     7     O       0.000024  -0.000012  -0.000010
     8     O      -0.051811   0.022891  -0.043874
     9     H       0.219864   0.123137   0.556219
    10     H       0.604151  -0.486694   0.141826

 Vibrational polarizability tensor (a.u.):
                  X                   Y                   Z
 X            2287.23512           311.68746           164.59142
 Y             311.68746          2949.98442          -141.99920
 Z             164.59142          -141.99920          2216.66906

 Isotropic =      2484.6    atomic units

PES point character: Geometry corresponds to a local minimum on the PES.




 ============================
 Statistical Thermal Analysis  ***  ideal gas assumed  ***
 ============================
  
 Pressure:                  1.000000 atm.
 Temperature:             298.150000 K



 Moments of Inertia [amu*bohr^2] and principal axis
 ==================================================

        2905.3522       3297.0227       4187.7853
 ------------------------------------------------
          -0.6803          0.0838         -0.7281
           0.2203          0.9709         -0.0941
          -0.6991          0.2244          0.6789


 The rotational contribution to the molecular entropy includes
 a term, dependent on the symmetry number sigma. The results 
 reported below were computed using sigma = 1, determined from
 the point group symmetry of the input geometry (NOSYM). 
 If this is not the correct symmetry, try symmetrizing the molecule before
 running the calculation (note: linear molecules should be aligned along one
 of the Cartesian axes).
 Contributions from frequencies below 20 1/cm are not included in vibrational sums.
 Their contributions, if any, are reported separately.


     Temp                                                        Transl      Rotat     Vibrat     Total
     ----                                                        ------      -----     ------     -----

     298.15   Entropy (cal/mol-K):                               44.134     32.062     52.494    128.689
              Nuclear Internal Energy (kcal/mol):                 0.889      0.889     27.227     29.005
              Constant Volume Heat Capacity (cal/mol-K):          2.981      2.981     37.167     43.129
          (c) Constant Volume Heat Capacity (cal/mol-K):          2.981      2.981     32.101     38.063

       Summary of energy terms
                                                   hartree              eV         kcal/mol           kJ/mol
                                      --------------------     -----------       ----------      -----------
      Energy from Engine:               -2.831457708568005        -77.0479         -1776.77         -7433.99
      Nuclear Internal Energy:           0.046221781421433          1.2578            29.00           121.36
  (c) Nuclear Internal Energy:           0.043614903756081          1.1868            27.37           114.51
      Internal Energy U:                -2.785235927146573        -75.7901         -1747.76         -7312.64
      pV/n = RT:                         0.000944186013486          0.0257             0.59             2.48
      Enthalpy H:                       -2.784291741133087        -75.7644         -1747.17         -7310.16
      -T*S:                             -0.061144438534899         -1.6638           -38.37          -160.53
  (c) -T*S:                             -0.059083329374954         -1.6077           -37.08          -155.12
      Gibbs free energy:                -2.845436179667986        -77.4283         -1785.54         -7470.69
 
 
 
  (c) The properties marked with this symbol have been corrected using 'low vibrational frequency free rotor
      interpolation corrections'. For those terms all positive frequencies are used (also ones below 20 1/cm),
      but the contribution to the partition function of small vibrational frequencies is modified as described
      in the following paper:
      S. Grimme, 'Supramolecular Binding Thermodynamics by Dispersion-Corrected Density Functional Theory'
      (Chem. Eur. J. 2012, 18, 9955-9964)
      Configuration: Dampener Frequency          :   100.000 1/cm
                     Dampener Alpha              :     4.000
                     Averaging Moment of Inertia : 1.000E-44 kg m2

--------------
Atomic charges
--------------
  Index   Atom    Charge
      1     Pa    1.6161
      2     Cl   -0.5987
      3     Cl   -0.6108
      4     Cl   -0.5919
      5     Cl   -0.6240
      6     Cl   -0.4658
      7      O   -0.8022
      8      O   -0.4050
      9      H    0.2418
     10      H    0.2405


Dipole moment vector    (Debye):    -0.75950647   -2.05059752   -5.59071185
              magnitude (Debye):     6.00315411


-----------------------
Molecular orbitals info
-----------------------
n orbitals:              379
n spin:                    1

Note: only printing virtual orbitals with
      energy smaller than HOMO + 100. eV

HOMO (eV):              -7.4608
LUMO (eV):              -1.7550
HOMO-LUMO gap (eV):      5.7058

   Index   Energy (eV)    Occupation
     280       90.9500         0.000       
     279       89.3943         0.000       
     278       87.8833         0.000       
     277       86.5682         0.000       
     276       83.8923         0.000       
     275       83.3176         0.000       
     274       83.1641         0.000       
     273       81.9915         0.000       
     272       80.6927         0.000       
     271       80.3078         0.000       
     270       79.5412         0.000       
     269       78.8379         0.000       
     268       76.2128         0.000       
     267       75.0670         0.000       
     266       73.9772         0.000       
     265       73.5856         0.000       
     264       73.5740         0.000       
     263       73.0566         0.000       
     262       72.9743         0.000       
     261       71.2811         0.000       
     260       71.0195         0.000       
     259       70.8102         0.000       
     258       70.2570         0.000       
     257       69.9843         0.000       
     256       69.1632         0.000       
     255       69.0428         0.000       
     254       68.9444         0.000       
     253       68.0880         0.000       
     252       67.7220         0.000       
     251       66.9892         0.000       
     250       66.9169         0.000       
     249       65.9579         0.000       
     248       65.2907         0.000       
     247       63.6852         0.000       
     246       60.2117         0.000       
     245       60.0166         0.000       
     244       59.4345         0.000       
     243       57.0050         0.000       
     242       55.9382         0.000       
     241       54.9689         0.000       
     240       52.8459         0.000       
     239       50.7367         0.000       
     238       50.6219         0.000       
     237       48.7926         0.000       
     236       48.5181         0.000       
     235       43.6282         0.000       
     234       43.5525         0.000       
     233       42.8464         0.000       
     232       42.6857         0.000       
     231       41.5943         0.000       
     230       41.1644         0.000       
     229       40.9819         0.000       
     228       40.9058         0.000       
     227       40.4723         0.000       
     226       40.1948         0.000       
     225       39.8526         0.000       
     224       39.6354         0.000       
     223       39.3886         0.000       
     222       38.9896         0.000       
     221       38.8553         0.000       
     220       38.7616         0.000       
     219       38.2686         0.000       
     218       38.2564         0.000       
     217       38.1181         0.000       
     216       38.0361         0.000       
     215       37.9301         0.000       
     214       37.5667         0.000       
     213       37.4392         0.000       
     212       37.3800         0.000       
     211       37.2956         0.000       
     210       37.0852         0.000       
     209       36.9463         0.000       
     208       36.7626         0.000       
     207       36.6802         0.000       
     206       36.5010         0.000       
     205       36.3609         0.000       
     204       36.0908         0.000       
     203       35.9731         0.000       
     202       35.7878         0.000       
     201       35.2182         0.000       
     200       35.0303         0.000       
     199       34.8413         0.000       
     198       34.6726         0.000       
     197       34.0159         0.000       
     196       33.9148         0.000       
     195       33.6403         0.000       
     194       32.5742         0.000       
     193       31.2035         0.000       
     192       29.8858         0.000       
     191       29.3690         0.000       
     190       28.9976         0.000       
     189       27.9455         0.000       
     188       27.2051         0.000       
     187       26.2872         0.000       
     186       25.5233         0.000       
     185       25.0379         0.000       
     184       24.6877         0.000       
     183       24.1427         0.000       
     182       23.7761         0.000       
     181       23.5790         0.000       
     180       23.0646         0.000       
     179       22.3999         0.000       
     178       21.8767         0.000       
     177       21.7010         0.000       
     176       21.6201         0.000       
     175       21.1543         0.000       
     174       20.3111         0.000       
     173       20.2231         0.000       
     172       18.9974         0.000       
     171       18.8666         0.000       
     170       18.3399         0.000       
     169       18.0034         0.000       
     168       17.8940         0.000       
     167       17.7357         0.000       
     166       16.6372         0.000       
     165       16.6153         0.000       
     164       15.9733         0.000       
     163       15.8921         0.000       
     162       15.7264         0.000       
     161       15.6359         0.000       
     160       15.4289         0.000       
     159       15.3811         0.000       
     158       14.9437         0.000       
     157       14.4833         0.000       
     156       14.3303         0.000       
     155       14.2924         0.000       
     154       14.1367         0.000       
     153       14.0819         0.000       
     152       13.5763         0.000       
     151       13.4314         0.000       
     150       13.3839         0.000       
     149       13.1746         0.000       
     148       12.6291         0.000       
     147       12.5032         0.000       
     146       12.1274         0.000       
     145       12.1156         0.000       
     144       11.5507         0.000       
     143       11.2931         0.000       
     142       11.1373         0.000       
     141       11.0964         0.000       
     140       10.8511         0.000       
     139       10.4837         0.000       
     138       10.3773         0.000       
     137        9.9364         0.000       
     136        9.8306         0.000       
     135        9.5569         0.000       
     134        9.4066         0.000       
     133        9.3408         0.000       
     132        9.2999         0.000       
     131        9.0046         0.000       
     130        8.7249         0.000       
     129        8.5050         0.000       
     128        8.3221         0.000       
     127        7.8763         0.000       
     126        7.6031         0.000       
     125        7.3654         0.000       
     124        7.2869         0.000       
     123        7.0478         0.000       
     122        6.0385         0.000       
     121        5.6264         0.000       
     120        4.5934         0.000       
     119        4.0572         0.000       
     118        3.5174         0.000       
     117        3.1392         0.000       
     116        2.8057         0.000       
     115        2.7847         0.000       
     114        2.6655         0.000       
     113        2.3018         0.000       
     112        2.2984         0.000       
     111        1.7615         0.000       
     110        1.7110         0.000       
     109        1.6618         0.000       
     108        1.4827         0.000       
     107        0.9980         0.000       
     106        0.2074         0.000       
     105       -0.7602         0.000       
     104       -1.4114         0.000       
     103       -1.4245         0.000       
     102       -1.5731         0.000       
     101       -1.6676         0.000       
     100       -1.7390         0.000       
      99       -1.7550         0.000 < LUMO
      98       -7.4608         2.000 < HOMO
      97       -7.9103         2.000       
      96       -8.0165         2.000       
      95       -8.0593         2.000       
      94       -8.1375         2.000       
      93       -8.1978         2.000       
      92       -8.2494         2.000       
      91       -8.5933         2.000       
      90       -8.6622         2.000       
      89       -8.7170         2.000       
      88       -9.0121         2.000       
      87       -9.0645         2.000       
      86       -9.1328         2.000       
      85       -9.3344         2.000       
      84       -9.6558         2.000       
      83       -9.9149         2.000       
      82      -10.1905         2.000       
      81      -10.3615         2.000       
      80      -10.7423         2.000       
      79      -12.6448         2.000       
      78      -16.0773         2.000       
      77      -20.5653         2.000       
      76      -20.9203         2.000       
      75      -20.9897         2.000       
      74      -21.2587         2.000       
      73      -21.4967         2.000       
      72      -22.5571         2.000       
      71      -25.5850         2.000       
      70      -25.7542         2.000       
      69      -29.4953         2.000       
      68      -29.6521         2.000       
      67      -50.2030         2.000       
      66     -100.1275         2.000       
      65     -100.1710         2.000       
      64     -100.1764         2.000       
      63     -100.2725         2.000       
      62     -100.2756         2.000       
      61     -195.7809         2.000       
      60     -195.7886         2.000       
      59     -195.8063         2.000       
      58     -195.8103         2.000       
      57     -195.8168         2.000       
      56     -195.8207         2.000       
      55     -195.8240         2.000       
      54     -195.8440         2.000       
      53     -195.8493         2.000       
      52     -195.8534         2.000       
      51     -195.8556         2.000       
      50     -195.8864         2.000       
      49     -196.4328         2.000       
      48     -196.4358         2.000       
      47     -196.4665         2.000       
      46     -207.2718         2.000       
      45     -207.5422         2.000       
      44     -207.5519         2.000       
      43     -259.3478         2.000       
      42     -259.3710         2.000       
      41     -259.3832         2.000       
      40     -259.4140         2.000       
      39     -259.9969         2.000       
      38     -305.9801         2.000       
      37     -361.2257         2.000       
      36     -361.2600         2.000       
      35     -361.2658         2.000       
      34     -361.3952         2.000       
      33     -361.4028         2.000       
      32     -361.5315         2.000       
      31     -361.5334         2.000       
      30     -522.5521         2.000       
      29     -524.1125         2.000       
      28     -713.0426         2.000       
      27     -713.1934         2.000       
      26     -713.1995         2.000       
      25     -713.3770         2.000       
      24     -713.3891         2.000       
      23    -1041.3242         2.000       
      22    -1041.6404         2.000       
      21    -1041.6501         2.000       
      20    -1359.7166         2.000       
      19    -2775.5289         2.000       
      18    -2775.5532         2.000       
      17    -2775.5639         2.000       
      16    -2775.5950         2.000       
      15    -2776.1777         2.000       
      14    -3484.9298         2.000       
      13    -3484.9875         2.000       
      12    -3484.9899         2.000       
      11    -3485.0732         2.000       
      10    -3485.0774         2.000       
       9    -4347.1414         2.000       
       8    -4347.3182         2.000       
       7    -4347.3230         2.000       
       6    -5318.3214         2.000       
       5   -17561.2670         2.000       
       4   -17561.2929         2.000       
       3   -17561.2940         2.000       
       2   -21037.0849         2.000       
       1  -112698.8812         2.000       

Final PES point is a local minimum. Geometry optimization successful!


AMS application finished. Exiting.
NORMAL TERMINATION
     Total cpu time:   15214.38
  Total system time:     306.99
 Total elapsed time:   15525.55
