

 Parallel Execution: Process Information
 ==============================================================================
 Rank   Node Name                              NodeID   MyNodeRank  NodeMaster
    0   u-0-4.local                               0          0          0
    1   u-0-4.local                               0          1         -1
    2   u-0-4.local                               0          2         -1
    3   u-0-4.local                               0          3         -1
    4   u-0-4.local                               1          0          1
    5   u-0-4.local                               1          1         -1
    6   u-0-4.local                               1          2         -1
    7   u-0-4.local                               1          3         -1
    8   u-0-4.local                               2          0          2
    9   u-0-4.local                               2          1         -1
   10   u-0-4.local                               2          2         -1
   11   u-0-4.local                               2          3         -1
   12   u-0-4.local                               3          0          3
   13   u-0-4.local                               3          1         -1
   14   u-0-4.local                               3          2         -1
   15   u-0-4.local                               3          3         -1
 ==============================================================================


May use up to 31228MB of RAM as shared memory on node 0
May use up to 31250MB of RAM as shared memory on node 1
May use up to 31250MB of RAM as shared memory on node 2
May use up to 31250MB of RAM as shared memory on node 3

 *******************************************************************************
 *                                                                             *
 *  --------------------------------                                           *
 *   Amsterdam Modeling Suite (AMS)              2024.103                      *
 *  --------------------------------                                           *
 *                                               r241004 2024-10-04 d82be5f7   *
 *                                                                             *
 *                                                                             *
 *                              =================                              *
 *                              |               |                              *
 *                              |     A M S     |                              *
 *                              |               |                              *
 *                              =================                              *
 *                                                                             *
 *                                                                             *
 *   Online information and documentation:  https://www.scm.com/support/       *
 *   E-mail:  support@scm.com   info@scm.com                                   *
 *                                                                             *
 *   Scientific publications using AMS results must be properly referenced     *
 *   See the User Manuals (or the web site) for recommended citations          *
 *   The terms and conditions of the End User License Agreement apply to       *
 *   the use of AMS, https://www.scm.com/license-terms/                        *
 *                                                                             *
 **********************  x86_64_linux_intel / intelmpi  ************************
 
 Licensed to: Dr. Val?rie Vallet / Laboratoire PhLAM UMR 8523 / Villeneuve d'Ascq Cedex / FRANCE 2024-12-20 16:14:47
 SCM User ID: u10325
  
 AMS 2024.103  RunTime: Mar21-2025 09:39:33  ShM Nodes: 4  Procs: 16

 AMS jobname: pao_3cl_1h2o_cl_trans-h2o-long.SR.pbe0.tz2p.opt-freq-solvation
 AMS jobid  : 1870677909

 Start   directory: /state/partition2/shaaban/1047560.phlam-s-sakura/
 Results directory: /home/shaaban/ams/PhD/geometries-exafs/pao-chloride/pao_cl4_2h2o/PBE0/pao_3cl_1h2o_cl_trans-h2o-long.SR.pbe0.tz2p.opt-freq-solvation.results/
 Scratch directory: /state/partition2/shaaban/1047560.phlam-s-sakura/amstmp_pao_3cl_1h2o_cl_trans-h2o-long.SR.pbe0.tz2p.opt-freq-solvation_kid0.1870677909/


 Communication costs MPI_COMM_WORLD:     -1.718 usec per message,   0.0451 usec per 8-byte item
 Communication costs for intra-node:      0.304 usec per message,   0.0086 usec per 8-byte item

 RNG seed: 718196319 1341438982 875588682 2009995626 534176374 332698033 -806629520 929217358



                     *************************************************************************
                     *  ADF 2024.103  RunTime: Mar21-2025 09:39:34  ShM Nodes: 4  Procs: 16  *
                     *************************************************************************
  

       ***************************
       *  GEOMETRY OPTIMIZATION  *
       ***************************

Optimization Method                    Quasi Newton
Optimization Coordinates               Delocalized Coordinates
Optimize lattice                       F
 
 ------------------------------------------------------
 Convergence criteria (Hartree,Angstrom)
 ------------------------------------------------------
 Maximum gradient               0.000100000000
 Maximum rms gradient           0.000066666667
 Maximum step allowed           0.001000000000
 Maximum rms step allowed       0.000666666667
 Maximum energy change allowe   0.000012000000
 Maximum stress energy allowe   0.000500000000
 
Initial model Hessian                  Automatic Hessian
 
------------------------------------
Quasi-Newton Optimizer Parameters
------------------------------------
Hessian Update Method                  BFGS
Maximum number of steps                  250
First GDIIS cycle                          0
Maximum GDIIS vectors                      0
Trust radius (bohr)                        0.200000
Trust radius varies                        T
Constraints converged at all steps         T
Use projector                              T
 
 Rigid motions settings for: old optimizer
 Atomic rotations (x,y,z):     T T T
 Atomic translations (x,y,z):  T T T
 Tolerance:                   1.000000000000000E-006
 
--------
Geometry
--------
Formula: H4Cl4O3Pa
Atoms
  Index Symbol   x (angstrom)   y (angstrom)   z (angstrom)
      1     Pa    -0.80672537    -1.16171864     0.27633088       adf.R=2.200
      2     Cl     0.26552469     1.20731333     0.98737162       adf.R=1.725
      3     Cl    -1.53172978    -3.57351034    -0.57756248       adf.R=1.725
      4      O     3.16586825    -0.07879903     0.19643069       adf.R=1.517
      5     Cl    -3.15191737    -0.06756801    -0.27474539       adf.R=1.725
      6     Cl     0.06722772    -0.66269100    -2.14901981       adf.R=1.725
      7      O    -1.21223388    -1.59592350     2.03449594       adf.R=1.517
      8      H     2.21563801    -1.33113799     0.45358241       adf.R=1.350
      9      O     1.46879612    -2.00249146     0.64611156       adf.R=1.517
     10      H     1.68399484    -2.43742709     1.49073660       adf.R=1.350
     11      H     2.51748732     0.65040654     0.30636463       adf.R=1.350
     12      H     3.47032103    -0.01315720    -0.72673600       adf.R=1.350
 
Total System Charge            -1.00000
Bonding info available!
 
 
----------------
ADF Engine Input
----------------
 
 Basis
 Type TZ2P
 Core None
 End
 XC
 Hybrid PBE0
 End
 Solvation
 Surf Delley
 Solv name=Water cav0=0.0 cav1=0.0067639
 Charged method=CONJ
 C-Mat POT
 SCF VAR ALL
 CSMRSP
 End
 NumericalQuality Good
 MBPT
 SigmaFunctionalParametrization W1
 End
 

 Title: *** (NO TITLE) ***

 Using automatic Hessian for delocalized coordinates.
 *** GO1_GOStep1 ***

 SOLVATION
-------------------------------------------

  The Delley construction of COSMO surface surface is calculated

       Division Level for Surface Triangles (NDIV)                  3
       Final Division Level for Triangles (NFDIV)                   1
       Radius of the Solvent (RSOL)                           1.93000 angstr
  Dielectric Constant (EPSL)                                 78.39000

       COSMO equation is solved iteratively-               conjugate-gradient

       Maximun of Iterations for Charges (NCIX)                  1000
       Criterion for Charge convergence (CCNV)                1.0E-08

  COSMO charges included variationally in SCF

       COSMO included at every SCF cycle

  Geometry-dependent empirical factor                         0.00000

  C-Matrix calculated in cspmtx

  In cspmtx, C-Matrix calculated using fitted potential

-------------------------------------------



 -------------------------------------------
  COSMO surface
  Area             =          643.756
  Volume           =         1158.891
  Number of Points =         1496
 -------------------------------------------
 
 RIHartreeFock Dependency: number of modified vectors:           8
 cosmo_calcen: 0.5 (esolb+esolc) (Hartrees) =   -0.099019

 Solvation energy (screening term,uncorrected) =    -62.135382 kcal/mol

 Solvation energy (dispersion and cavitation terms) =      1.203773 kcal/mol
 Solvation Energy Contributions (Hartrees)
          esola   esolb+esolc
     0.09901902   -0.19803805
 esol last cycle   -0.09901902
  
 Hartree-Fock exchange energy:   -603.344040493103     
 cosmo_calcen: 0.5 (esolb+esolc) (Hartrees) =   -0.099019

 Solvation energy (screening term,uncorrected) =    -62.135381 kcal/mol

 Solvation energy (dispersion and cavitation terms) =      1.203773 kcal/mol
 Solvation Energy Contributions (Hartrees)
          esola   esolb+esolc
     0.09901902   -0.19803804
 esol last cycle   -0.09901902

 Energy gradients wrt nuclear displacements
 ==========================================

     Atom      Cartesian (a.u./angstrom)
                 X         Y         Z
 ----------------------------------------
     1 Pa    0.007679  0.009666 -0.037781
     2 Cl    0.001837  0.005071  0.001991
     3 Cl   -0.001977 -0.005025 -0.001430
     4 O     0.010383 -0.015081  0.016554
     5 Cl   -0.005623  0.002502 -0.001054
     6 Cl    0.002281  0.001422 -0.007021
     7 O    -0.010243 -0.010853  0.043528
     8 H     0.014091  0.013280 -0.004186
     9 O    -0.013594 -0.008920 -0.010626
    10 H     0.004123 -0.008559  0.016626
    11 H    -0.014793  0.015209  0.002164
    12 H     0.005837  0.001289 -0.018764
 ----------------------------------------
 Mulliken charges used for AMS results%charges...
 
----------------------------------------------------------------------
Geometry Convergence after Step   1       (Hartree/Angstrom,Angstrom)
----------------------------------------------------------------------
current energy                               -3.18395600 Hartree
energy change                      -3.18395600     0.00001200    F
constrained gradient max            0.04356941     0.00010000    F
constrained gradient rms            0.01338036     0.00006667    F
gradient max                        0.04356941
gradient rms                        0.01338036
cart. step max                      0.12732157     0.00100000    F
cart. step rms                      0.05414122     0.00066667    F
 
 
--------
Geometry
--------
Formula: H4Cl4O3Pa
Atoms
  Index Symbol   x (angstrom)   y (angstrom)   z (angstrom)
      1     Pa    -0.80478082    -1.14701946     0.27326895       adf.R=2.200
      2     Cl     0.25424005     1.22965834     0.96196997       adf.R=1.725
      3     Cl    -1.47280886    -3.57421814    -0.57360674       adf.R=1.725
      4      O     3.10240047    -0.19872699     0.25150302       adf.R=1.517
      5     Cl    -3.17139762    -0.09632279    -0.25332146       adf.R=1.725
      6     Cl     0.02845780    -0.63319695    -2.15876639       adf.R=1.725
      7      O    -1.17209534    -1.58255118     2.01758522       adf.R=1.517
      8      H     2.21432235    -1.22746747     0.40533623       adf.R=1.350
      9      O     1.49866504    -1.91411986     0.60512627       adf.R=1.517
     10      H     1.73792654    -2.33895634     1.43687772       adf.R=1.350
     11      H     2.49756729     0.55669523     0.34704941       adf.R=1.350
     12      H     3.43975471    -0.14047877    -0.64966151       adf.R=1.350
 
Total System Charge            -1.00000
Bonding info available!
 
 *** GO1_GOStep2 ***

 SOLVATION
-------------------------------------------

  The Delley construction of COSMO surface surface is calculated

       Division Level for Surface Triangles (NDIV)                  3
       Final Division Level for Triangles (NFDIV)                   1
       Radius of the Solvent (RSOL)                           1.93000 angstr
  Dielectric Constant (EPSL)                                 78.39000

       COSMO equation is solved iteratively-               conjugate-gradient

       Maximun of Iterations for Charges (NCIX)                  1000
       Criterion for Charge convergence (CCNV)                1.0E-08

  COSMO charges included variationally in SCF

       COSMO included at every SCF cycle

  Geometry-dependent empirical factor                         0.00000

  C-Matrix calculated in cspmtx

  In cspmtx, C-Matrix calculated using fitted potential

-------------------------------------------



 -------------------------------------------
  COSMO surface
  Area             =          636.796
  Volume           =         1142.283
  Number of Points =         1477
 -------------------------------------------
 
 RIHartreeFock Dependency: number of modified vectors:           8
 cosmo_calcen: 0.5 (esolb+esolc) (Hartrees) =   -0.100132

 Solvation energy (screening term,uncorrected) =    -62.833546 kcal/mol

 Solvation energy (dispersion and cavitation terms) =      1.190759 kcal/mol
 Solvation Energy Contributions (Hartrees)
          esola   esolb+esolc
     0.10013162   -0.20026324
 esol last cycle   -0.10013162
  
 Hartree-Fock exchange energy:   -603.414835672741     
 cosmo_calcen: 0.5 (esolb+esolc) (Hartrees) =   -0.100132

 Solvation energy (screening term,uncorrected) =    -62.833548 kcal/mol

 Solvation energy (dispersion and cavitation terms) =      1.190759 kcal/mol
 Solvation Energy Contributions (Hartrees)
          esola   esolb+esolc
     0.10013162   -0.20026325
 esol last cycle   -0.10013162

 Energy gradients wrt nuclear displacements
 ==========================================

     Atom      Cartesian (a.u./angstrom)
                 X         Y         Z
 ----------------------------------------
     1 Pa   -0.005374  0.006996 -0.014265
     2 Cl    0.000062  0.002078  0.001039
     3 Cl   -0.000629 -0.002065 -0.000579
     4 O    -0.018447 -0.035101  0.011871
     5 Cl   -0.002363  0.001025 -0.000575
     6 Cl    0.001149  0.000637 -0.003569
     7 O    -0.002755 -0.004196  0.015659
     8 H    -0.012963 -0.000641  0.000325
     9 O     0.046835  0.033064 -0.009690
    10 H     0.003067  0.000708  0.002168
    11 H    -0.004862 -0.002023 -0.002195
    12 H    -0.003721 -0.000482 -0.000190
 ----------------------------------------
 Mulliken charges used for AMS results%charges...

 dE(predicted):    -0.12225E-02, dE(actual):     0.31979E-02, Trust radius:    0.049086, all in a.u.
 
----------------------------------------------------------------------
Geometry Convergence after Step   2       (Hartree/Angstrom,Angstrom)
----------------------------------------------------------------------
current energy                               -3.18075813 Hartree
energy change                       0.00319787     0.00001200    F
constrained gradient max            0.04683751     0.00010000    F
constrained gradient rms            0.01280980     0.00006667    F
gradient max                        0.04683751
gradient rms                        0.01280980
cart. step max                      0.07887525     0.00100000    F
cart. step rms                      0.03157393     0.00066667    F
 
 
--------
Geometry
--------
Formula: H4Cl4O3Pa
Atoms
  Index Symbol   x (angstrom)   y (angstrom)   z (angstrom)
      1     Pa    -0.80508890    -1.15213839     0.27533061       adf.R=2.200
      2     Cl     0.25186322     1.23442228     0.94273089       adf.R=1.725
      3     Cl    -1.51128173    -3.57285296    -0.55699571       adf.R=1.725
      4      O     3.13939047    -0.12442732     0.25353491       adf.R=1.517
      5     Cl    -3.16628529    -0.09050702    -0.24997215       adf.R=1.725
      6     Cl     0.02452282    -0.66154418    -2.16173429       adf.R=1.725
      7      O    -1.17011515    -1.57302603     2.01863518       adf.R=1.517
      8      H     2.21048972    -1.30634272     0.40177547       adf.R=1.350
      9      O     1.47771270    -1.97228774     0.60516315       adf.R=1.517
     10      H     1.70693136    -2.39871077     1.43690714       adf.R=1.350
     11      H     2.51480250     0.61248091     0.34271631       adf.R=1.350
     12      H     3.47930987    -0.06177047    -0.64473086       adf.R=1.350
 
Total System Charge            -1.00000
Bonding info available!
 
 *** GO1_GOStep3 ***

 SOLVATION
-------------------------------------------

  The Delley construction of COSMO surface surface is calculated

       Division Level for Surface Triangles (NDIV)                  3
       Final Division Level for Triangles (NFDIV)                   1
       Radius of the Solvent (RSOL)                           1.93000 angstr
  Dielectric Constant (EPSL)                                 78.39000

       COSMO equation is solved iteratively-               conjugate-gradient

       Maximun of Iterations for Charges (NCIX)                  1000
       Criterion for Charge convergence (CCNV)                1.0E-08

  COSMO charges included variationally in SCF

       COSMO included at every SCF cycle

  Geometry-dependent empirical factor                         0.00000

  C-Matrix calculated in cspmtx

  In cspmtx, C-Matrix calculated using fitted potential

-------------------------------------------



 -------------------------------------------
  COSMO surface
  Area             =          641.617
  Volume           =         1152.574
  Number of Points =         1492
 -------------------------------------------
 
 RIHartreeFock Dependency: number of modified vectors:           8
 cosmo_calcen: 0.5 (esolb+esolc) (Hartrees) =   -0.099224

 Solvation energy (screening term,uncorrected) =    -62.264085 kcal/mol

 Solvation energy (dispersion and cavitation terms) =      1.199774 kcal/mol
 Solvation Energy Contributions (Hartrees)
          esola   esolb+esolc
     0.09922413   -0.19844825
 esol last cycle   -0.09922413
  
 Hartree-Fock exchange energy:   -603.402650483725     
 cosmo_calcen: 0.5 (esolb+esolc) (Hartrees) =   -0.099224

 Solvation energy (screening term,uncorrected) =    -62.264094 kcal/mol

 Solvation energy (dispersion and cavitation terms) =      1.199774 kcal/mol
 Solvation Energy Contributions (Hartrees)
          esola   esolb+esolc
     0.09922414   -0.19844828
 esol last cycle   -0.09922414

 Energy gradients wrt nuclear displacements
 ==========================================

     Atom      Cartesian (a.u./angstrom)
                 X         Y         Z
 ----------------------------------------
     1 Pa   -0.001276  0.002495 -0.007392
     2 Cl    0.000588  0.003174  0.000906
     3 Cl   -0.000778 -0.001926 -0.000609
     4 O    -0.002909 -0.007678  0.005078
     5 Cl   -0.002339  0.001028 -0.000502
     6 Cl    0.001093  0.000707 -0.003799
     7 O    -0.002021 -0.002606  0.010070
     8 H    -0.001460  0.000427 -0.004209
     9 O     0.013520  0.004370  0.001867
    10 H     0.000324  0.001778 -0.001370
    11 H    -0.001388 -0.000740 -0.001691
    12 H    -0.003356 -0.001027  0.001650
 ----------------------------------------
 Mulliken charges used for AMS results%charges...

 dE(predicted):    -0.48312E-02, dE(actual):    -0.38935E-02, Trust radius:    0.098172, all in a.u.
 
----------------------------------------------------------------------
Geometry Convergence after Step   3       (Hartree/Angstrom,Angstrom)
----------------------------------------------------------------------
current energy                               -3.18465158 Hartree
energy change                      -0.00389346     0.00001200    F
constrained gradient max            0.01352049     0.00010000    F
constrained gradient rms            0.00393592     0.00006667    F
gradient max                        0.01352049
gradient rms                        0.00393592
cart. step max                      0.06877035     0.00100000    F
cart. step rms                      0.02436639     0.00066667    F
 
 
--------
Geometry
--------
Formula: H4Cl4O3Pa
Atoms
  Index Symbol   x (angstrom)   y (angstrom)   z (angstrom)
      1     Pa    -0.80629385    -1.15671688     0.27844093       adf.R=2.200
      2     Cl     0.26472138     1.21989240     0.95097898       adf.R=1.725
      3     Cl    -1.50092888    -3.56746202    -0.58516486       adf.R=1.725
      4      O     3.14959297    -0.11264435     0.19801616       adf.R=1.517
      5     Cl    -3.16195348    -0.08828058    -0.24532464       adf.R=1.725
      6     Cl     0.03998174    -0.64623816    -2.14502712       adf.R=1.725
      7      O    -1.17996562    -1.58878322     2.00574140       adf.R=1.517
      8      H     2.19800324    -1.31897125     0.47054582       adf.R=1.350
      9      O     1.46390958    -1.98505645     0.64319606       adf.R=1.517
     10      H     1.67258605    -2.41841462     1.47485606       adf.R=1.350
     11      H     2.52395390     0.61545185     0.31325518       adf.R=1.350
     12      H     3.48864458    -0.01948110    -0.69615332       adf.R=1.350
 
Total System Charge            -1.00000
Bonding info available!
 
 *** GO1_GOStep4 ***

 SOLVATION
-------------------------------------------

  The Delley construction of COSMO surface surface is calculated

       Division Level for Surface Triangles (NDIV)                  3
       Final Division Level for Triangles (NFDIV)                   1
       Radius of the Solvent (RSOL)                           1.93000 angstr
  Dielectric Constant (EPSL)                                 78.39000

       COSMO equation is solved iteratively-               conjugate-gradient

       Maximun of Iterations for Charges (NCIX)                  1000
       Criterion for Charge convergence (CCNV)                1.0E-08

  COSMO charges included variationally in SCF

       COSMO included at every SCF cycle

  Geometry-dependent empirical factor                         0.00000

  C-Matrix calculated in cspmtx

  In cspmtx, C-Matrix calculated using fitted potential

-------------------------------------------



 -------------------------------------------
  COSMO surface
  Area             =          640.593
  Volume           =         1152.140
  Number of Points =         1493
 -------------------------------------------
 
 RIHartreeFock Dependency: number of modified vectors:           8
 cosmo_calcen: 0.5 (esolb+esolc) (Hartrees) =   -0.098405

 Solvation energy (screening term,uncorrected) =    -61.749975 kcal/mol

 Solvation energy (dispersion and cavitation terms) =      1.197859 kcal/mol
 Solvation Energy Contributions (Hartrees)
          esola   esolb+esolc
     0.09840484   -0.19680968
 esol last cycle   -0.09840484
  
 Hartree-Fock exchange energy:   -603.415201861468     
 cosmo_calcen: 0.5 (esolb+esolc) (Hartrees) =   -0.098405

 Solvation energy (screening term,uncorrected) =    -61.749975 kcal/mol

 Solvation energy (dispersion and cavitation terms) =      1.197859 kcal/mol
 Solvation Energy Contributions (Hartrees)
          esola   esolb+esolc
     0.09840484   -0.19680968
 esol last cycle   -0.09840484

 Energy gradients wrt nuclear displacements
 ==========================================

     Atom      Cartesian (a.u./angstrom)
                 X         Y         Z
 ----------------------------------------
     1 Pa   -0.002810 -0.002292  0.006938
     2 Cl    0.000606  0.001993 -0.000180
     3 Cl   -0.000356 -0.000514 -0.000418
     4 O    -0.001887 -0.001835 -0.003348
     5 Cl   -0.001014  0.000411 -0.000120
     6 Cl    0.000800  0.000813 -0.002151
     7 O     0.001467  0.000973 -0.005259
     8 H    -0.001395  0.002080  0.004402
     9 O     0.004906 -0.002362  0.001597
    10 H     0.000178  0.003979 -0.004510
    11 H     0.001428 -0.004686 -0.001181
    12 H    -0.001924  0.001440  0.004230
 ----------------------------------------
 Mulliken charges used for AMS results%charges...

 dE(predicted):    -0.85493E-03, dE(actual):    -0.58714E-03, Trust radius:    0.098172, all in a.u.
 
----------------------------------------------------------------------
Geometry Convergence after Step   4       (Hartree/Angstrom,Angstrom)
----------------------------------------------------------------------
current energy                               -3.18523873 Hartree
energy change                      -0.00058714     0.00001200    F
constrained gradient max            0.00697657     0.00010000    F
constrained gradient rms            0.00271477     0.00006667    F
gradient max                        0.00697657
gradient rms                        0.00271477
cart. step max                      0.04443511     0.00100000    F
cart. step rms                      0.02118600     0.00066667    F
 
 
--------
Geometry
--------
Formula: H4Cl4O3Pa
Atoms
  Index Symbol   x (angstrom)   y (angstrom)   z (angstrom)
      1     Pa    -0.81243083    -1.15701093     0.27374276       adf.R=2.200
      2     Cl     0.26191053     1.22472301     0.91867611       adf.R=1.725
      3     Cl    -1.51468962    -3.57033373    -0.57194234       adf.R=1.725
      4      O     3.18393329    -0.06820924     0.23518357       adf.R=1.517
      5     Cl    -3.17397935    -0.09586848    -0.22818433       adf.R=1.725
      6     Cl     0.00801848    -0.66051083    -2.15775399       adf.R=1.725
      7      O    -1.16921460    -1.58048592     2.00609340       adf.R=1.517
      8      H     2.19348704    -1.35705723     0.43656992       adf.R=1.350
      9      O     1.44874418    -2.00380127     0.62985782       adf.R=1.517
     10      H     1.65934754    -2.43758962     1.46748241       adf.R=1.350
     11      H     2.54117325     0.65313806     0.32018097       adf.R=1.350
     12      H     3.52595169    -0.01369823    -0.66654564       adf.R=1.350
 
Total System Charge            -1.00000
Bonding info available!
 
 *** GO1_GOStep5 ***

 SOLVATION
-------------------------------------------

  The Delley construction of COSMO surface surface is calculated

       Division Level for Surface Triangles (NDIV)                  3
       Final Division Level for Triangles (NFDIV)                   1
       Radius of the Solvent (RSOL)                           1.93000 angstr
  Dielectric Constant (EPSL)                                 78.39000

       COSMO equation is solved iteratively-               conjugate-gradient

       Maximun of Iterations for Charges (NCIX)                  1000
       Criterion for Charge convergence (CCNV)                1.0E-08

  COSMO charges included variationally in SCF

       COSMO included at every SCF cycle

  Geometry-dependent empirical factor                         0.00000

  C-Matrix calculated in cspmtx

  In cspmtx, C-Matrix calculated using fitted potential

-------------------------------------------



 -------------------------------------------
  COSMO surface
  Area             =          641.193
  Volume           =         1152.581
  Number of Points =         1495
 -------------------------------------------
 
 RIHartreeFock Dependency: number of modified vectors:           8
 cosmo_calcen: 0.5 (esolb+esolc) (Hartrees) =   -0.098384

 Solvation energy (screening term,uncorrected) =    -61.737049 kcal/mol

 Solvation energy (dispersion and cavitation terms) =      1.198981 kcal/mol
 Solvation Energy Contributions (Hartrees)
          esola   esolb+esolc
     0.09838424   -0.19676848
 esol last cycle   -0.09838424
  
 Hartree-Fock exchange energy:   -603.404098012541     
 cosmo_calcen: 0.5 (esolb+esolc) (Hartrees) =   -0.098384

 Solvation energy (screening term,uncorrected) =    -61.737050 kcal/mol

 Solvation energy (dispersion and cavitation terms) =      1.198981 kcal/mol
 Solvation Energy Contributions (Hartrees)
          esola   esolb+esolc
     0.09838424   -0.19676848
 esol last cycle   -0.09838424

 Energy gradients wrt nuclear displacements
 ==========================================

     Atom      Cartesian (a.u./angstrom)
                 X         Y         Z
 ----------------------------------------
     1 Pa   -0.001079 -0.003180  0.007205
     2 Cl    0.000612  0.001857 -0.000421
     3 Cl   -0.000140  0.000004 -0.000281
     4 O     0.001719  0.002988  0.005621
     5 Cl   -0.000503  0.000156  0.000095
     6 Cl    0.000255  0.000695 -0.001373
     7 O     0.001602  0.001209 -0.006432
     8 H     0.003040  0.002642 -0.003377
     9 O    -0.006094 -0.003801 -0.001821
    10 H     0.000790 -0.002063  0.004945
    11 H    -0.002103  0.000867  0.001047
    12 H     0.001901 -0.001373 -0.005208
 ----------------------------------------
 Mulliken charges used for AMS results%charges...

 dE(predicted):    -0.35943E-03, dE(actual):    -0.54680E-04, Trust radius:    0.098172, all in a.u.
 
----------------------------------------------------------------------
Geometry Convergence after Step   5       (Hartree/Angstrom,Angstrom)
----------------------------------------------------------------------
current energy                               -3.18529341 Hartree
energy change                      -0.00005468     0.00001200    F
constrained gradient max            0.00724996     0.00010000    F
constrained gradient rms            0.00293250     0.00006667    F
gradient max                        0.00724996
gradient rms                        0.00293250
cart. step max                      0.03577531     0.00100000    F
cart. step rms                      0.01594708     0.00066667    F
 
 
--------
Geometry
--------
Formula: H4Cl4O3Pa
Atoms
  Index Symbol   x (angstrom)   y (angstrom)   z (angstrom)
      1     Pa    -0.80791722    -1.15429622     0.27921980       adf.R=2.200
      2     Cl     0.26337935     1.22017067     0.95445142       adf.R=1.725
      3     Cl    -1.50526055    -3.56746595    -0.57326922       adf.R=1.725
      4      O     3.15880946    -0.08863775     0.19955977       adf.R=1.517
      5     Cl    -3.16022443    -0.08566936    -0.25317143       adf.R=1.725
      6     Cl     0.04056172    -0.65835570    -2.14357546       adf.R=1.725
      7      O    -1.18658308    -1.58175698     2.01228546       adf.R=1.517
      8      H     2.20244949    -1.35429670     0.45207164       adf.R=1.350
      9      O     1.45489841    -1.99907859     0.64177181       adf.R=1.517
     10      H     1.66271742    -2.44116686     1.47434943       adf.R=1.350
     11      H     2.53062868     0.64178176     0.31818544       adf.R=1.350
     12      H     3.49879236     0.00206727    -0.69851800       adf.R=1.350
 
Total System Charge            -1.00000
Bonding info available!
 
 *** GO1_GOStep6 ***

 SOLVATION
-------------------------------------------

  The Delley construction of COSMO surface surface is calculated

       Division Level for Surface Triangles (NDIV)                  3
       Final Division Level for Triangles (NFDIV)                   1
       Radius of the Solvent (RSOL)                           1.93000 angstr
  Dielectric Constant (EPSL)                                 78.39000

       COSMO equation is solved iteratively-               conjugate-gradient

       Maximun of Iterations for Charges (NCIX)                  1000
       Criterion for Charge convergence (CCNV)                1.0E-08

  COSMO charges included variationally in SCF

       COSMO included at every SCF cycle

  Geometry-dependent empirical factor                         0.00000

  C-Matrix calculated in cspmtx

  In cspmtx, C-Matrix calculated using fitted potential

-------------------------------------------



 -------------------------------------------
  COSMO surface
  Area             =          641.767
  Volume           =         1154.404
  Number of Points =         1498
 -------------------------------------------
 
 RIHartreeFock Dependency: number of modified vectors:           8
 cosmo_calcen: 0.5 (esolb+esolc) (Hartrees) =   -0.098558

 Solvation energy (screening term,uncorrected) =    -61.846292 kcal/mol

 Solvation energy (dispersion and cavitation terms) =      1.200054 kcal/mol
 Solvation Energy Contributions (Hartrees)
          esola   esolb+esolc
     0.09855833   -0.19711666
 esol last cycle   -0.09855833
  
 Hartree-Fock exchange energy:   -603.401567456420     
 cosmo_calcen: 0.5 (esolb+esolc) (Hartrees) =   -0.098558

 Solvation energy (screening term,uncorrected) =    -61.846287 kcal/mol

 Solvation energy (dispersion and cavitation terms) =      1.200054 kcal/mol
 Solvation Energy Contributions (Hartrees)
          esola   esolb+esolc
     0.09855832   -0.19711664
 esol last cycle   -0.09855832

 Energy gradients wrt nuclear displacements
 ==========================================

     Atom      Cartesian (a.u./angstrom)
                 X         Y         Z
 ----------------------------------------
     1 Pa   -0.000474 -0.000635 -0.000703
     2 Cl    0.000776  0.002004  0.000040
     3 Cl   -0.000278 -0.000578 -0.000372
     4 O     0.000925 -0.002261  0.002077
     5 Cl   -0.001006  0.000398 -0.000117
     6 Cl    0.000619  0.000514 -0.001858
     7 O    -0.000263 -0.000746  0.002008
     8 H     0.002482  0.001285  0.000171
     9 O    -0.002069 -0.001602 -0.002520
    10 H     0.000697 -0.000972  0.003110
    11 H    -0.002636  0.002175  0.000899
    12 H     0.001227  0.000417 -0.002737
 ----------------------------------------
 Mulliken charges used for AMS results%charges...

 dE(predicted):    -0.17083E-03, dE(actual):    -0.16565E-03, Trust radius:    0.196343, all in a.u.
 
----------------------------------------------------------------------
Geometry Convergence after Step   6       (Hartree/Angstrom,Angstrom)
----------------------------------------------------------------------
current energy                               -3.18545906 Hartree
energy change                      -0.00016565     0.00001200    F
constrained gradient max            0.00309195     0.00010000    F
constrained gradient rms            0.00149325     0.00006667    F
gradient max                        0.00309195
gradient rms                        0.00149325
cart. step max                      0.01099383     0.00100000    F
cart. step rms                      0.00514701     0.00066667    F
 
 
--------
Geometry
--------
Formula: H4Cl4O3Pa
Atoms
  Index Symbol   x (angstrom)   y (angstrom)   z (angstrom)
      1     Pa    -0.81086101    -1.15459097     0.28323305       adf.R=2.200
      2     Cl     0.26635859     1.21339591     0.96386642       adf.R=1.725
      3     Cl    -1.49984511    -3.56975659    -0.56738319       adf.R=1.725
      4      O     3.15844954    -0.09253194     0.19906547       adf.R=1.517
      5     Cl    -3.15828911    -0.08441451    -0.26115774       adf.R=1.725
      6     Cl     0.04314754    -0.66198093    -2.13623426       adf.R=1.725
      7      O    -1.19264186    -1.57926897     2.01145156       adf.R=1.517
      8      H     2.19683184    -1.34616780     0.44544153       adf.R=1.350
      9      O     1.45487837    -1.99028905     0.63843066       adf.R=1.517
     10      H     1.66718188    -2.43458937     1.46335560       adf.R=1.350
     11      H     2.53351961     0.63544407     0.31924594       adf.R=1.350
     12      H     3.49352129    -0.00195425    -0.69595437       adf.R=1.350
 
Total System Charge            -1.00000
Bonding info available!
 
 *** GO1_GOStep7 ***

 SOLVATION
-------------------------------------------

  The Delley construction of COSMO surface surface is calculated

       Division Level for Surface Triangles (NDIV)                  3
       Final Division Level for Triangles (NFDIV)                   1
       Radius of the Solvent (RSOL)                           1.93000 angstr
  Dielectric Constant (EPSL)                                 78.39000

       COSMO equation is solved iteratively-               conjugate-gradient

       Maximun of Iterations for Charges (NCIX)                  1000
       Criterion for Charge convergence (CCNV)                1.0E-08

  COSMO charges included variationally in SCF

       COSMO included at every SCF cycle

  Geometry-dependent empirical factor                         0.00000

  C-Matrix calculated in cspmtx

  In cspmtx, C-Matrix calculated using fitted potential

-------------------------------------------



 -------------------------------------------
  COSMO surface
  Area             =          641.450
  Volume           =         1153.480
  Number of Points =         1496
 -------------------------------------------
 
 RIHartreeFock Dependency: number of modified vectors:           8
 cosmo_calcen: 0.5 (esolb+esolc) (Hartrees) =   -0.098382

 Solvation energy (screening term,uncorrected) =    -61.735658 kcal/mol

 Solvation energy (dispersion and cavitation terms) =      1.199462 kcal/mol
 Solvation Energy Contributions (Hartrees)
          esola   esolb+esolc
     0.09838202   -0.19676405
 esol last cycle   -0.09838202
  
 Hartree-Fock exchange energy:   -603.416486359106     
 cosmo_calcen: 0.5 (esolb+esolc) (Hartrees) =   -0.098382

 Solvation energy (screening term,uncorrected) =    -61.735662 kcal/mol

 Solvation energy (dispersion and cavitation terms) =      1.199462 kcal/mol
 Solvation Energy Contributions (Hartrees)
          esola   esolb+esolc
     0.09838203   -0.19676406
 esol last cycle   -0.09838203

 Energy gradients wrt nuclear displacements
 ==========================================

     Atom      Cartesian (a.u./angstrom)
                 X         Y         Z
 ----------------------------------------
     1 Pa   -0.002035 -0.002006  0.005448
     2 Cl    0.000628  0.001100 -0.000074
     3 Cl   -0.000027  0.000099 -0.000179
     4 O    -0.000505  0.002208 -0.004324
     5 Cl   -0.000182  0.000065 -0.000078
     6 Cl    0.000401  0.000191 -0.000935
     7 O     0.001200  0.001012 -0.004771
     8 H    -0.002067 -0.001575  0.000779
     9 O     0.004600 -0.000826  0.003345
    10 H    -0.001305  0.002961 -0.004214
    11 H     0.001547 -0.003094 -0.000391
    12 H    -0.002255 -0.000136  0.005395
 ----------------------------------------
 Mulliken charges used for AMS results%charges...

 dE(predicted):    -0.53245E-04, dE(actual):    -0.12498E-05, Trust radius:    0.020000, all in a.u.
 
----------------------------------------------------------------------
Geometry Convergence after Step   7       (Hartree/Angstrom,Angstrom)
----------------------------------------------------------------------
current energy                               -3.18546031 Hartree
energy change                      -0.00000125     0.00001200    T
constrained gradient max            0.00549175     0.00010000    F
constrained gradient rms            0.00238375     0.00006667    F
gradient max                        0.00549175
gradient rms                        0.00238375
cart. step max                      0.00603601     0.00100000    F
cart. step rms                      0.00236042     0.00066667    F
 
 
--------
Geometry
--------
Formula: H4Cl4O3Pa
Atoms
  Index Symbol   x (angstrom)   y (angstrom)   z (angstrom)
      1     Pa    -0.81199593    -1.15498304     0.28307590       adf.R=2.200
      2     Cl     0.26781543     1.21055618     0.96732758       adf.R=1.725
      3     Cl    -1.49965108    -3.57066638    -0.56765804       adf.R=1.725
      4      O     3.16220386    -0.08896997     0.19695407       adf.R=1.517
      5     Cl    -3.15825199    -0.08341194    -0.26385048       adf.R=1.725
      6     Cl     0.04391089    -0.66177683    -2.13524285       adf.R=1.725
      7      O    -1.19717696    -1.58066934     2.01353505       adf.R=1.517
      8      H     2.19602794    -1.34507899     0.44828225       adf.R=1.350
      9      O     1.45320545    -1.99071319     0.64006648       adf.R=1.517
     10      H     1.66588391    -2.43941156     1.46529769       adf.R=1.350
     11      H     2.53547601     0.63976283     0.31756338       adf.R=1.350
     12      H     3.49480406    -0.00134218    -0.70199037       adf.R=1.350
 
Total System Charge            -1.00000
Bonding info available!
 
 *** GO1_GOStep8 ***

 SOLVATION
-------------------------------------------

  The Delley construction of COSMO surface surface is calculated

       Division Level for Surface Triangles (NDIV)                  3
       Final Division Level for Triangles (NFDIV)                   1
       Radius of the Solvent (RSOL)                           1.93000 angstr
  Dielectric Constant (EPSL)                                 78.39000

       COSMO equation is solved iteratively-               conjugate-gradient

       Maximun of Iterations for Charges (NCIX)                  1000
       Criterion for Charge convergence (CCNV)                1.0E-08

  COSMO charges included variationally in SCF

       COSMO included at every SCF cycle

  Geometry-dependent empirical factor                         0.00000

  C-Matrix calculated in cspmtx

  In cspmtx, C-Matrix calculated using fitted potential

-------------------------------------------



 -------------------------------------------
  COSMO surface
  Area             =          641.883
  Volume           =         1154.275
  Number of Points =         1498
 -------------------------------------------
 
 RIHartreeFock Dependency: number of modified vectors:           8
 cosmo_calcen: 0.5 (esolb+esolc) (Hartrees) =   -0.098439

 Solvation energy (screening term,uncorrected) =    -61.771662 kcal/mol

 Solvation energy (dispersion and cavitation terms) =      1.200272 kcal/mol
 Solvation Energy Contributions (Hartrees)
          esola   esolb+esolc
     0.09843940   -0.19687880
 esol last cycle   -0.09843940
  
 Hartree-Fock exchange energy:   -603.409158404950     
 cosmo_calcen: 0.5 (esolb+esolc) (Hartrees) =   -0.098439

 Solvation energy (screening term,uncorrected) =    -61.771661 kcal/mol

 Solvation energy (dispersion and cavitation terms) =      1.200272 kcal/mol
 Solvation Energy Contributions (Hartrees)
          esola   esolb+esolc
     0.09843940   -0.19687880
 esol last cycle   -0.09843940

 Energy gradients wrt nuclear displacements
 ==========================================

     Atom      Cartesian (a.u./angstrom)
                 X         Y         Z
 ----------------------------------------
     1 Pa   -0.001038 -0.000911  0.001219
     2 Cl    0.000717  0.001169  0.000019
     3 Cl   -0.000094 -0.000139 -0.000221
     4 O     0.000342  0.000282 -0.000824
     5 Cl   -0.000384  0.000148 -0.000123
     6 Cl    0.000415  0.000202 -0.001006
     7 O     0.000251 -0.000033 -0.000523
     8 H    -0.000679 -0.000107  0.000284
     9 O     0.001849 -0.000618  0.000257
    10 H    -0.000485  0.000639 -0.000329
    11 H    -0.000615 -0.000687  0.000377
    12 H    -0.000279  0.000055  0.000870
 ----------------------------------------
 Mulliken charges used for AMS results%charges...

 dE(predicted):    -0.34380E-04, dE(actual):    -0.48278E-04, Trust radius:    0.040000, all in a.u.
 
----------------------------------------------------------------------
Geometry Convergence after Step   8       (Hartree/Angstrom,Angstrom)
----------------------------------------------------------------------
current energy                               -3.18550859 Hartree
energy change                      -0.00004828     0.00001200    F
constrained gradient max            0.00185458     0.00010000    F
constrained gradient rms            0.00064382     0.00006667    F
gradient max                        0.00185458
gradient rms                        0.00064382
cart. step max                      0.00766829     0.00100000    F
cart. step rms                      0.00329632     0.00066667    F
 
 
--------
Geometry
--------
Formula: H4Cl4O3Pa
Atoms
  Index Symbol   x (angstrom)   y (angstrom)   z (angstrom)
      1     Pa    -0.81273478    -1.15443081     0.28489237       adf.R=2.200
      2     Cl     0.26891415     1.20723839     0.97499587       adf.R=1.725
      3     Cl    -1.49562328    -3.57121792    -0.56573372       adf.R=1.725
      4      O     3.16234045    -0.08656628     0.19321107       adf.R=1.517
      5     Cl    -3.15601823    -0.08198524    -0.27051480       adf.R=1.725
      6     Cl     0.04813007    -0.66089582    -2.13027307       adf.R=1.725
      7      O    -1.20382084    -1.57973151     2.01491160       adf.R=1.517
      8      H     2.19633254    -1.34562692     0.44983692       adf.R=1.350
      9      O     1.45188880    -1.98941606     0.64191351       adf.R=1.517
     10      H     1.66622775    -2.44473776     1.46366057       adf.R=1.350
     11      H     2.53684384     0.64350341     0.31507770       adf.R=1.350
     12      H     3.48977114    -0.00283787    -0.70861737       adf.R=1.350
 
Total System Charge            -1.00000
Bonding info available!
 
 *** GO1_GOStep9 ***

 SOLVATION
-------------------------------------------

  The Delley construction of COSMO surface surface is calculated

       Division Level for Surface Triangles (NDIV)                  3
       Final Division Level for Triangles (NFDIV)                   1
       Radius of the Solvent (RSOL)                           1.93000 angstr
  Dielectric Constant (EPSL)                                 78.39000

       COSMO equation is solved iteratively-               conjugate-gradient

       Maximun of Iterations for Charges (NCIX)                  1000
       Criterion for Charge convergence (CCNV)                1.0E-08

  COSMO charges included variationally in SCF

       COSMO included at every SCF cycle

  Geometry-dependent empirical factor                         0.00000

  C-Matrix calculated in cspmtx

  In cspmtx, C-Matrix calculated using fitted potential

-------------------------------------------



 -------------------------------------------
  COSMO surface
  Area             =          642.660
  Volume           =         1155.331
  Number of Points =         1499
 -------------------------------------------
 
 RIHartreeFock Dependency: number of modified vectors:           8
 cosmo_calcen: 0.5 (esolb+esolc) (Hartrees) =   -0.098488

 Solvation energy (screening term,uncorrected) =    -61.802013 kcal/mol

 Solvation energy (dispersion and cavitation terms) =      1.201724 kcal/mol
 Solvation Energy Contributions (Hartrees)
          esola   esolb+esolc
     0.09848777   -0.19697553
 esol last cycle   -0.09848777
  
 Hartree-Fock exchange energy:   -603.408213599079     
 cosmo_calcen: 0.5 (esolb+esolc) (Hartrees) =   -0.098488

 Solvation energy (screening term,uncorrected) =    -61.802007 kcal/mol

 Solvation energy (dispersion and cavitation terms) =      1.201724 kcal/mol
 Solvation Energy Contributions (Hartrees)
          esola   esolb+esolc
     0.09848776   -0.19697551
 esol last cycle   -0.09848776

 Energy gradients wrt nuclear displacements
 ==========================================

     Atom      Cartesian (a.u./angstrom)
                 X         Y         Z
 ----------------------------------------
     1 Pa   -0.000840 -0.000531  0.000015
     2 Cl    0.000711  0.000832  0.000010
     3 Cl   -0.000037 -0.000046 -0.000156
     4 O     0.000397  0.000030 -0.000003
     5 Cl   -0.000201  0.000076 -0.000126
     6 Cl    0.000310  0.000101 -0.000607
     7 O     0.000025 -0.000193  0.000313
     8 H    -0.000193 -0.000080  0.000108
     9 O     0.001060 -0.000251 -0.000438
    10 H    -0.000356  0.000052  0.000497
    11 H    -0.001026  0.000017  0.000572
    12 H     0.000150 -0.000007 -0.000185
 ----------------------------------------
 Mulliken charges used for AMS results%charges...

 dE(predicted):    -0.85165E-05, dE(actual):    -0.21742E-04, Trust radius:    0.040000, all in a.u.
 
----------------------------------------------------------------------
Geometry Convergence after Step   9       (Hartree/Angstrom,Angstrom)
----------------------------------------------------------------------
current energy                               -3.18553033 Hartree
energy change                      -0.00002174     0.00001200    F
constrained gradient max            0.00106608     0.00010000    F
constrained gradient rms            0.00041613     0.00006667    F
gradient max                        0.00106608
gradient rms                        0.00041613
cart. step max                      0.01009590     0.00100000    F
cart. step rms                      0.00413816     0.00066667    F
 
 
--------
Geometry
--------
Formula: H4Cl4O3Pa
Atoms
  Index Symbol   x (angstrom)   y (angstrom)   z (angstrom)
      1     Pa    -0.81509407    -1.15394840     0.28756735       adf.R=2.200
      2     Cl     0.27083408     1.20159423     0.98369029       adf.R=1.725
      3     Cl    -1.49011559    -3.57342493    -0.56051906       adf.R=1.725
      4      O     3.16364489    -0.08505941     0.19071199       adf.R=1.517
      5     Cl    -3.15441686    -0.08083866    -0.27936390       adf.R=1.725
      6     Cl     0.04989399    -0.66063062    -2.12407100       adf.R=1.725
      7      O    -1.21391674    -1.57718246     2.01686576       adf.R=1.517
      8      H     2.19451024    -1.34296131     0.44935992       adf.R=1.350
      9      O     1.44942167    -1.98572265     0.64229101       adf.R=1.517
     10      H     1.66884845    -2.45125377     1.45708684       adf.R=1.350
     11      H     2.54079311     0.64729428     0.31255252       adf.R=1.350
     12      H     3.48784843    -0.00457069    -0.71281106       adf.R=1.350
 
Total System Charge            -1.00000
Bonding info available!
 
 *** GO1_GOStep10 ***

 SOLVATION
-------------------------------------------

  The Delley construction of COSMO surface surface is calculated

       Division Level for Surface Triangles (NDIV)                  3
       Final Division Level for Triangles (NFDIV)                   1
       Radius of the Solvent (RSOL)                           1.93000 angstr
  Dielectric Constant (EPSL)                                 78.39000

       COSMO equation is solved iteratively-               conjugate-gradient

       Maximun of Iterations for Charges (NCIX)                  1000
       Criterion for Charge convergence (CCNV)                1.0E-08

  COSMO charges included variationally in SCF

       COSMO included at every SCF cycle

  Geometry-dependent empirical factor                         0.00000

  C-Matrix calculated in cspmtx

  In cspmtx, C-Matrix calculated using fitted potential

-------------------------------------------



 -------------------------------------------
  COSMO surface
  Area             =          643.353
  Volume           =         1156.563
  Number of Points =         1499
 -------------------------------------------
 
 RIHartreeFock Dependency: number of modified vectors:           8
 cosmo_calcen: 0.5 (esolb+esolc) (Hartrees) =   -0.098604

 Solvation energy (screening term,uncorrected) =    -61.874728 kcal/mol

 Solvation energy (dispersion and cavitation terms) =      1.203019 kcal/mol
 Solvation Energy Contributions (Hartrees)
          esola   esolb+esolc
     0.09860365   -0.19720729
 esol last cycle   -0.09860365
  
 Hartree-Fock exchange energy:   -603.408780767601     
 cosmo_calcen: 0.5 (esolb+esolc) (Hartrees) =   -0.098604

 Solvation energy (screening term,uncorrected) =    -61.874726 kcal/mol

 Solvation energy (dispersion and cavitation terms) =      1.203019 kcal/mol
 Solvation Energy Contributions (Hartrees)
          esola   esolb+esolc
     0.09860364   -0.19720728
 esol last cycle   -0.09860364

 Energy gradients wrt nuclear displacements
 ==========================================

     Atom      Cartesian (a.u./angstrom)
                 X         Y         Z
 ----------------------------------------
     1 Pa   -0.000658 -0.000097 -0.000827
     2 Cl    0.000662  0.000208 -0.000059
     3 Cl    0.000064  0.000153 -0.000040
     4 O     0.000403 -0.000024  0.000465
     5 Cl    0.000156 -0.000066 -0.000124
     6 Cl    0.000122 -0.000050  0.000043
     7 O    -0.000142 -0.000205  0.000616
     8 H    -0.000096 -0.000049 -0.000113
     9 O     0.000628  0.000109 -0.000618
    10 H    -0.000325 -0.000256  0.000724
    11 H    -0.001033  0.000251  0.000498
    12 H     0.000217  0.000026 -0.000565
 ----------------------------------------
 Mulliken charges used for AMS results%charges...

 dE(predicted):    -0.92423E-05, dE(actual):    -0.15413E-04, Trust radius:    0.080000, all in a.u.
 
----------------------------------------------------------------------
Geometry Convergence after Step  10       (Hartree/Angstrom,Angstrom)
----------------------------------------------------------------------
current energy                               -3.18554574 Hartree
energy change                      -0.00001541     0.00001200    F
constrained gradient max            0.00102383     0.00010000    F
constrained gradient rms            0.00039857     0.00006667    F
gradient max                        0.00102383
gradient rms                        0.00039857
cart. step max                      0.00580947     0.00100000    F
cart. step rms                      0.00244303     0.00066667    F
 
 
--------
Geometry
--------
Formula: H4Cl4O3Pa
Atoms
  Index Symbol   x (angstrom)   y (angstrom)   z (angstrom)
      1     Pa    -0.81627546    -1.15329782     0.28888285       adf.R=2.200
      2     Cl     0.27114323     1.19946787     0.98645934       adf.R=1.725
      3     Cl    -1.48614739    -3.57485059    -0.55706170       adf.R=1.725
      4      O     3.16367894    -0.08488709     0.19078458       adf.R=1.517
      5     Cl    -3.15442847    -0.08119131    -0.28313775       adf.R=1.725
      6     Cl     0.04860402    -0.65935380    -2.12149593       adf.R=1.725
      7      O    -1.21922996    -1.57467476     2.01760006       adf.R=1.517
      8      H     2.19354013    -1.34084473     0.44991921       adf.R=1.350
      9      O     1.44787870    -1.98326128     0.64233304       adf.R=1.517
     10      H     1.67147295    -2.45654000     1.45127737       adf.R=1.350
     11      H     2.54364066     0.64998270     0.31047336       adf.R=1.350
     12      H     3.48837423    -0.00725359    -0.71267377       adf.R=1.350
 
Total System Charge            -1.00000
Bonding info available!
 
 *** GO1_GOStep11 ***

 SOLVATION
-------------------------------------------

  The Delley construction of COSMO surface surface is calculated

       Division Level for Surface Triangles (NDIV)                  3
       Final Division Level for Triangles (NFDIV)                   1
       Radius of the Solvent (RSOL)                           1.93000 angstr
  Dielectric Constant (EPSL)                                 78.39000

       COSMO equation is solved iteratively-               conjugate-gradient

       Maximun of Iterations for Charges (NCIX)                  1000
       Criterion for Charge convergence (CCNV)                1.0E-08

  COSMO charges included variationally in SCF

       COSMO included at every SCF cycle

  Geometry-dependent empirical factor                         0.00000

  C-Matrix calculated in cspmtx

  In cspmtx, C-Matrix calculated using fitted potential

-------------------------------------------



 -------------------------------------------
  COSMO surface
  Area             =          643.660
  Volume           =         1156.923
  Number of Points =         1497
 -------------------------------------------
 
 RIHartreeFock Dependency: number of modified vectors:           8
 cosmo_calcen: 0.5 (esolb+esolc) (Hartrees) =   -0.098745

 Solvation energy (screening term,uncorrected) =    -61.963496 kcal/mol

 Solvation energy (dispersion and cavitation terms) =      1.203594 kcal/mol
 Solvation Energy Contributions (Hartrees)
          esola   esolb+esolc
     0.09874511   -0.19749021
 esol last cycle   -0.09874511
  
 Hartree-Fock exchange energy:   -603.409900049238     
 cosmo_calcen: 0.5 (esolb+esolc) (Hartrees) =   -0.098745

 Solvation energy (screening term,uncorrected) =    -61.963501 kcal/mol

 Solvation energy (dispersion and cavitation terms) =      1.203594 kcal/mol
 Solvation Energy Contributions (Hartrees)
          esola   esolb+esolc
     0.09874511   -0.19749023
 esol last cycle   -0.09874511

 Energy gradients wrt nuclear displacements
 ==========================================

     Atom      Cartesian (a.u./angstrom)
                 X         Y         Z
 ----------------------------------------
     1 Pa   -0.000618  0.000073 -0.000891
     2 Cl    0.000612 -0.000198 -0.000138
     3 Cl    0.000127  0.000280  0.000028
     4 O     0.000280  0.000011  0.000422
     5 Cl    0.000373 -0.000153 -0.000108
     6 Cl   -0.000007 -0.000108  0.000441
     7 O    -0.000113 -0.000088  0.000320
     8 H     0.000046 -0.000092 -0.000099
     9 O     0.000321  0.000105 -0.000388
    10 H    -0.000245 -0.000117  0.000412
    11 H    -0.000811  0.000222  0.000325
    12 H     0.000035  0.000064 -0.000323
 ----------------------------------------
 Mulliken charges used for AMS results%charges...

 dE(predicted):    -0.37782E-05, dE(actual):    -0.58279E-05, Trust radius:    0.080000, all in a.u.
 
----------------------------------------------------------------------
Geometry Convergence after Step  11       (Hartree/Angstrom,Angstrom)
----------------------------------------------------------------------
current energy                               -3.18555157 Hartree
energy change                      -0.00000583     0.00001200    T
constrained gradient max            0.00084421     0.00010000    F
constrained gradient rms            0.00032752     0.00006667    F
gradient max                        0.00084421
gradient rms                        0.00032752
cart. step max                      0.00767827     0.00100000    F
cart. step rms                      0.00302098     0.00066667    F
 
 
--------
Geometry
--------
Formula: H4Cl4O3Pa
Atoms
  Index Symbol   x (angstrom)   y (angstrom)   z (angstrom)
      1     Pa    -0.81740617    -1.15255775     0.28930000       adf.R=2.200
      2     Cl     0.27043779     1.19923670     0.98445805       adf.R=1.725
      3     Cl    -1.48320783    -3.57658329    -0.55337250       adf.R=1.725
      4      O     3.16397309    -0.08546200     0.19380749       adf.R=1.517
      5     Cl    -3.15656162    -0.08294406    -0.28333981       adf.R=1.725
      6     Cl     0.04284328    -0.65815076    -2.12199169       adf.R=1.725
      7      O    -1.22252600    -1.57159490     2.01787396       adf.R=1.517
      8      H     2.19200847    -1.33763280     0.45056606       adf.R=1.350
      9      O     1.44624809    -1.98080131     0.64140073       adf.R=1.517
     10      H     1.67480875    -2.46265381     1.44359910       adf.R=1.350
     11      H     2.54745939     0.65282014     0.30873216       adf.R=1.350
     12      H     3.49417436    -0.01038055    -0.70767287       adf.R=1.350
 
Total System Charge            -1.00000
Bonding info available!
 
 *** GO1_GOStep12 ***

 SOLVATION
-------------------------------------------

  The Delley construction of COSMO surface surface is calculated

       Division Level for Surface Triangles (NDIV)                  3
       Final Division Level for Triangles (NFDIV)                   1
       Radius of the Solvent (RSOL)                           1.93000 angstr
  Dielectric Constant (EPSL)                                 78.39000

       COSMO equation is solved iteratively-               conjugate-gradient

       Maximun of Iterations for Charges (NCIX)                  1000
       Criterion for Charge convergence (CCNV)                1.0E-08

  COSMO charges included variationally in SCF

       COSMO included at every SCF cycle

  Geometry-dependent empirical factor                         0.00000

  C-Matrix calculated in cspmtx

  In cspmtx, C-Matrix calculated using fitted potential

-------------------------------------------



 -------------------------------------------
  COSMO surface
  Area             =          644.132
  Volume           =         1157.639
  Number of Points =         1499
 -------------------------------------------
 
 RIHartreeFock Dependency: number of modified vectors:           8
 cosmo_calcen: 0.5 (esolb+esolc) (Hartrees) =   -0.098975

 Solvation energy (screening term,uncorrected) =    -62.108005 kcal/mol

 Solvation energy (dispersion and cavitation terms) =      1.204476 kcal/mol
 Solvation Energy Contributions (Hartrees)
          esola   esolb+esolc
     0.09897540   -0.19795079
 esol last cycle   -0.09897540
  
 Hartree-Fock exchange energy:   -603.410953290889     
 cosmo_calcen: 0.5 (esolb+esolc) (Hartrees) =   -0.098975

 Solvation energy (screening term,uncorrected) =    -62.108009 kcal/mol

 Solvation energy (dispersion and cavitation terms) =      1.204476 kcal/mol
 Solvation Energy Contributions (Hartrees)
          esola   esolb+esolc
     0.09897540   -0.19795081
 esol last cycle   -0.09897540

 Energy gradients wrt nuclear displacements
 ==========================================

     Atom      Cartesian (a.u./angstrom)
                 X         Y         Z
 ----------------------------------------
     1 Pa   -0.000504  0.000226 -0.000727
     2 Cl    0.000553 -0.000507 -0.000229
     3 Cl    0.000162  0.000331  0.000064
     4 O     0.000134 -0.000004  0.000325
     5 Cl    0.000501 -0.000192 -0.000080
     6 Cl   -0.000116 -0.000119  0.000679
     7 O    -0.000059  0.000034 -0.000067
     8 H     0.000134 -0.000029 -0.000037
     9 O    -0.000009 -0.000062 -0.000103
    10 H    -0.000076  0.000076  0.000044
    11 H    -0.000539  0.000099  0.000113
    12 H    -0.000182  0.000148  0.000018
 ----------------------------------------
 Mulliken charges used for AMS results%charges...

 dE(predicted):    -0.36097E-05, dE(actual):    -0.60468E-05, Trust radius:    0.080000, all in a.u.
 
----------------------------------------------------------------------
Geometry Convergence after Step  12       (Hartree/Angstrom,Angstrom)
----------------------------------------------------------------------
current energy                               -3.18555762 Hartree
energy change                      -0.00000605     0.00001200    T
constrained gradient max            0.00069595     0.00010000    F
constrained gradient rms            0.00028213     0.00006667    F
gradient max                        0.00069595
gradient rms                        0.00028213
cart. step max                      0.00956555     0.00100000    F
cart. step rms                      0.00392178     0.00066667    F
 
 
--------
Geometry
--------
Formula: H4Cl4O3Pa
Atoms
  Index Symbol   x (angstrom)   y (angstrom)   z (angstrom)
      1     Pa    -0.81796995    -1.15170037     0.28871561       adf.R=2.200
      2     Cl     0.26855897     1.20136968     0.97827514       adf.R=1.725
      3     Cl    -1.48166520    -3.57795657    -0.55082903       adf.R=1.725
      4      O     3.16413972    -0.08618150     0.19867419       adf.R=1.517
      5     Cl    -3.16049074    -0.08597090    -0.27961390       adf.R=1.725
      6     Cl     0.03424216    -0.65688128    -2.12548081       adf.R=1.725
      7      O    -1.22306719    -1.56875186     2.01753210       adf.R=1.517
      8      H     2.19063964    -1.33447952     0.45222375       adf.R=1.350
      9      O     1.44486827    -1.97887530     0.64037993       adf.R=1.517
     10      H     1.67770690    -2.46925304     1.43594991       adf.R=1.350
     11      H     2.55154911     0.65609016     0.30693010       adf.R=1.350
     12      H     3.50373991    -0.01411389    -0.69939634       adf.R=1.350
 
Total System Charge            -1.00000
Bonding info available!
 
 *** GO1_GOStep13 ***

 SOLVATION
-------------------------------------------

  The Delley construction of COSMO surface surface is calculated

       Division Level for Surface Triangles (NDIV)                  3
       Final Division Level for Triangles (NFDIV)                   1
       Radius of the Solvent (RSOL)                           1.93000 angstr
  Dielectric Constant (EPSL)                                 78.39000

       COSMO equation is solved iteratively-               conjugate-gradient

       Maximun of Iterations for Charges (NCIX)                  1000
       Criterion for Charge convergence (CCNV)                1.0E-08

  COSMO charges included variationally in SCF

       COSMO included at every SCF cycle

  Geometry-dependent empirical factor                         0.00000

  C-Matrix calculated in cspmtx

  In cspmtx, C-Matrix calculated using fitted potential

-------------------------------------------



 -------------------------------------------
  COSMO surface
  Area             =          644.551
  Volume           =         1158.034
  Number of Points =         1502
 -------------------------------------------
 
 RIHartreeFock Dependency: number of modified vectors:           8
 cosmo_calcen: 0.5 (esolb+esolc) (Hartrees) =   -0.099257

 Solvation energy (screening term,uncorrected) =    -62.285023 kcal/mol

 Solvation energy (dispersion and cavitation terms) =      1.205261 kcal/mol
 Solvation Energy Contributions (Hartrees)
          esola   esolb+esolc
     0.09925749   -0.19851498
 esol last cycle   -0.09925749
  
 Hartree-Fock exchange energy:   -603.411531474870     
 cosmo_calcen: 0.5 (esolb+esolc) (Hartrees) =   -0.099257

 Solvation energy (screening term,uncorrected) =    -62.285020 kcal/mol

 Solvation energy (dispersion and cavitation terms) =      1.205261 kcal/mol
 Solvation Energy Contributions (Hartrees)
          esola   esolb+esolc
     0.09925749   -0.19851497
 esol last cycle   -0.09925749

 Energy gradients wrt nuclear displacements
 ==========================================

     Atom      Cartesian (a.u./angstrom)
                 X         Y         Z
 ----------------------------------------
     1 Pa   -0.000252  0.000320 -0.000450
     2 Cl    0.000511 -0.000630 -0.000310
     3 Cl    0.000145  0.000276  0.000044
     4 O    -0.000049 -0.000032  0.000214
     5 Cl    0.000443 -0.000180 -0.000053
     6 Cl   -0.000157 -0.000070  0.000670
     7 O    -0.000021  0.000111 -0.000396
     8 H     0.000199  0.000042  0.000070
     9 O    -0.000329 -0.000266  0.000196
    10 H     0.000138  0.000224 -0.000238
    11 H    -0.000341  0.000028 -0.000019
    12 H    -0.000286  0.000177  0.000273
 ----------------------------------------
 Mulliken charges used for AMS results%charges...

 dE(predicted):    -0.34707E-05, dE(actual):     0.24518E-05, Trust radius:    0.020000, all in a.u.
 
----------------------------------------------------------------------
Geometry Convergence after Step  13       (Hartree/Angstrom,Angstrom)
----------------------------------------------------------------------
current energy                               -3.18555517 Hartree
energy change                       0.00000245     0.00001200    T
constrained gradient max            0.00068720     0.00010000    F
constrained gradient rms            0.00027817     0.00006667    F
gradient max                        0.00068720
gradient rms                        0.00027817
cart. step max                      0.00713929     0.00100000    F
cart. step rms                      0.00253741     0.00066667    F
 
 
--------
Geometry
--------
Formula: H4Cl4O3Pa
Atoms
  Index Symbol   x (angstrom)   y (angstrom)   z (angstrom)
      1     Pa    -0.81796745    -1.15146348     0.28782896       adf.R=2.200
      2     Cl     0.26690803     1.20368422     0.97328590       adf.R=1.725
      3     Cl    -1.48270076    -3.57842698    -0.55045710       adf.R=1.725
      4      O     3.16432712    -0.08647417     0.20178454       adf.R=1.517
      5     Cl    -3.16330839    -0.08771240    -0.27547197       adf.R=1.725
      6     Cl     0.02896740    -0.65729992    -2.12916087       adf.R=1.725
      7      O    -1.22129615    -1.56808024     2.01715211       adf.R=1.517
      8      H     2.18999916    -1.33308856     0.45301257       adf.R=1.350
      9      O     1.44447615    -1.97835741     0.63958017       adf.R=1.517
     10      H     1.67827863    -2.47191084     1.43291192       adf.R=1.350
     11      H     2.55368865     0.65779516     0.30658629       adf.R=1.350
     12      H     3.51087919    -0.01536977    -0.69369188       adf.R=1.350
 
Total System Charge            -1.00000
Bonding info available!
 
 *** GO1_GOStep14 ***

 SOLVATION
-------------------------------------------

  The Delley construction of COSMO surface surface is calculated

       Division Level for Surface Triangles (NDIV)                  3
       Final Division Level for Triangles (NFDIV)                   1
       Radius of the Solvent (RSOL)                           1.93000 angstr
  Dielectric Constant (EPSL)                                 78.39000

       COSMO equation is solved iteratively-               conjugate-gradient

       Maximun of Iterations for Charges (NCIX)                  1000
       Criterion for Charge convergence (CCNV)                1.0E-08

  COSMO charges included variationally in SCF

       COSMO included at every SCF cycle

  Geometry-dependent empirical factor                         0.00000

  C-Matrix calculated in cspmtx

  In cspmtx, C-Matrix calculated using fitted potential

-------------------------------------------



 -------------------------------------------
  COSMO surface
  Area             =          644.394
  Volume           =         1157.714
  Number of Points =         1504
 -------------------------------------------
 
 RIHartreeFock Dependency: number of modified vectors:           8
 cosmo_calcen: 0.5 (esolb+esolc) (Hartrees) =   -0.099408

 Solvation energy (screening term,uncorrected) =    -62.379722 kcal/mol

 Solvation energy (dispersion and cavitation terms) =      1.204966 kcal/mol
 Solvation Energy Contributions (Hartrees)
          esola   esolb+esolc
     0.09940840   -0.19881681
 esol last cycle   -0.09940840
  
 Hartree-Fock exchange energy:   -603.411210304263     
 cosmo_calcen: 0.5 (esolb+esolc) (Hartrees) =   -0.099408

 Solvation energy (screening term,uncorrected) =    -62.379718 kcal/mol

 Solvation energy (dispersion and cavitation terms) =      1.204966 kcal/mol
 Solvation Energy Contributions (Hartrees)
          esola   esolb+esolc
     0.09940840   -0.19881680
 esol last cycle   -0.09940840

 Energy gradients wrt nuclear displacements
 ==========================================

     Atom      Cartesian (a.u./angstrom)
                 X         Y         Z
 ----------------------------------------
     1 Pa   -0.000034  0.000329 -0.000334
     2 Cl    0.000518 -0.000504 -0.000303
     3 Cl    0.000095  0.000145 -0.000016
     4 O    -0.000162 -0.000001  0.000120
     5 Cl    0.000261 -0.000113 -0.000051
     6 Cl   -0.000106 -0.000023  0.000422
     7 O    -0.000050  0.000072 -0.000314
     8 H     0.000112  0.000086  0.000109
     9 O    -0.000325 -0.000306  0.000253
    10 H     0.000211  0.000178 -0.000218
    11 H    -0.000326  0.000011  0.000066
    12 H    -0.000193  0.000127  0.000267
 ----------------------------------------
 Mulliken charges used for AMS results%charges...

 dE(predicted):    -0.21168E-05, dE(actual):     0.24681E-05, Trust radius:    0.020000, all in a.u.
 
----------------------------------------------------------------------
Geometry Convergence after Step  14       (Hartree/Angstrom,Angstrom)
----------------------------------------------------------------------
current energy                               -3.18555270 Hartree
energy change                       0.00000247     0.00001200    T
constrained gradient max            0.00054033     0.00010000    F
constrained gradient rms            0.00022858     0.00006667    F
gradient max                        0.00054033
gradient rms                        0.00022858
cart. step max                      0.00789769     0.00100000    F
cart. step rms                      0.00261192     0.00066667    F
 
 
--------
Geometry
--------
Formula: H4Cl4O3Pa
Atoms
  Index Symbol   x (angstrom)   y (angstrom)   z (angstrom)
      1     Pa    -0.81807502    -1.15150390     0.28699478       adf.R=2.200
      2     Cl     0.26484500     1.20611090     0.96864861       adf.R=1.725
      3     Cl    -1.48481562    -3.57885868    -0.55051135       adf.R=1.725
      4      O     3.16494225    -0.08613777     0.20485579       adf.R=1.517
      5     Cl    -3.16628540    -0.08921876    -0.27096341       adf.R=1.725
      6     Cl     0.02429023    -0.65860448    -2.13304645       adf.R=1.725
      7      O    -1.21885908    -1.56825121     2.01694492       adf.R=1.517
      8      H     2.18948346    -1.33186582     0.45357361       adf.R=1.350
      9      O     1.44414192    -1.97775537     0.63855190       adf.R=1.517
     10      H     1.67778244    -2.47402086     1.43033215       adf.R=1.350
     11      H     2.55602454     0.65998413     0.30592598       adf.R=1.350
     12      H     3.51877688    -0.01658258    -0.68794586       adf.R=1.350
 
Total System Charge            -1.00000
Bonding info available!
 
 *** GO1_GOStep15 ***

 SOLVATION
-------------------------------------------

  The Delley construction of COSMO surface surface is calculated

       Division Level for Surface Triangles (NDIV)                  3
       Final Division Level for Triangles (NFDIV)                   1
       Radius of the Solvent (RSOL)                           1.93000 angstr
  Dielectric Constant (EPSL)                                 78.39000

       COSMO equation is solved iteratively-               conjugate-gradient

       Maximun of Iterations for Charges (NCIX)                  1000
       Criterion for Charge convergence (CCNV)                1.0E-08

  COSMO charges included variationally in SCF

       COSMO included at every SCF cycle

  Geometry-dependent empirical factor                         0.00000

  C-Matrix calculated in cspmtx

  In cspmtx, C-Matrix calculated using fitted potential

-------------------------------------------



 -------------------------------------------
  COSMO surface
  Area             =          644.595
  Volume           =         1157.616
  Number of Points =         1502
 -------------------------------------------
 
 RIHartreeFock Dependency: number of modified vectors:           8
 cosmo_calcen: 0.5 (esolb+esolc) (Hartrees) =   -0.099544

 Solvation energy (screening term,uncorrected) =    -62.464947 kcal/mol

 Solvation energy (dispersion and cavitation terms) =      1.205342 kcal/mol
 Solvation Energy Contributions (Hartrees)
          esola   esolb+esolc
     0.09954422   -0.19908844
 esol last cycle   -0.09954422
  
 Hartree-Fock exchange energy:   -603.410504660901     
 cosmo_calcen: 0.5 (esolb+esolc) (Hartrees) =   -0.099544

 Solvation energy (screening term,uncorrected) =    -62.464943 kcal/mol

 Solvation energy (dispersion and cavitation terms) =      1.205342 kcal/mol
 Solvation Energy Contributions (Hartrees)
          esola   esolb+esolc
     0.09954421   -0.19908843
 esol last cycle   -0.09954421

 Energy gradients wrt nuclear displacements
 ==========================================

     Atom      Cartesian (a.u./angstrom)
                 X         Y         Z
 ----------------------------------------
     1 Pa    0.000218  0.000269 -0.000222
     2 Cl    0.000551 -0.000271 -0.000246
     3 Cl    0.000022 -0.000039 -0.000102
     4 O    -0.000239  0.000110  0.000119
     5 Cl    0.000006 -0.000010 -0.000065
     6 Cl    0.000003  0.000019  0.000067
     7 O    -0.000100 -0.000006 -0.000083
     8 H    -0.000012  0.000105  0.000120
     9 O    -0.000206 -0.000230  0.000238
    10 H     0.000168  0.000008 -0.000127
    11 H    -0.000393  0.000038  0.000172
    12 H    -0.000019  0.000006  0.000130
 ----------------------------------------
 Mulliken charges used for AMS results%charges...

 dE(predicted):    -0.20078E-05, dE(actual):     0.60760E-05, Trust radius:    0.020000, all in a.u.
 
----------------------------------------------------------------------
Geometry Convergence after Step  15       (Hartree/Angstrom,Angstrom)
----------------------------------------------------------------------
current energy                               -3.18554662 Hartree
energy change                       0.00000608     0.00001200    T
constrained gradient max            0.00057406     0.00010000    F
constrained gradient rms            0.00017408     0.00006667    F
gradient max                        0.00057406
gradient rms                        0.00017408
cart. step max                      0.00809129     0.00100000    F
cart. step rms                      0.00226548     0.00066667    F
 
 
--------
Geometry
--------
Formula: H4Cl4O3Pa
Atoms
  Index Symbol   x (angstrom)   y (angstrom)   z (angstrom)
      1     Pa    -0.81891946    -1.15198811     0.28659887       adf.R=2.200
      2     Cl     0.26331093     1.20708075     0.96586529       adf.R=1.725
      3     Cl    -1.48769099    -3.57969538    -0.54952795       adf.R=1.725
      4      O     3.16599482    -0.08623985     0.20691266       adf.R=1.517
      5     Cl    -3.16865780    -0.09002425    -0.26833095       adf.R=1.725
      6     Cl     0.02069863    -0.66101335    -2.13572725       adf.R=1.725
      7      O    -1.21722447    -1.56854742     2.01720361       adf.R=1.517
      8      H     2.18887421    -1.33155163     0.45138642       adf.R=1.350
      9      O     1.44352008    -1.97712937     0.63683067       adf.R=1.517
     10      H     1.67683632    -2.47396600     1.42846593       adf.R=1.350
     11      H     2.55864114     0.66127708     0.30665859       adf.R=1.350
     12      H     3.52686817    -0.01490687    -0.68297521       adf.R=1.350
 
Total System Charge            -1.00000
Bonding info available!
 
 *** GO1_GOStep16 ***

 SOLVATION
-------------------------------------------

  The Delley construction of COSMO surface surface is calculated

       Division Level for Surface Triangles (NDIV)                  3
       Final Division Level for Triangles (NFDIV)                   1
       Radius of the Solvent (RSOL)                           1.93000 angstr
  Dielectric Constant (EPSL)                                 78.39000

       COSMO equation is solved iteratively-               conjugate-gradient

       Maximun of Iterations for Charges (NCIX)                  1000
       Criterion for Charge convergence (CCNV)                1.0E-08

  COSMO charges included variationally in SCF

       COSMO included at every SCF cycle

  Geometry-dependent empirical factor                         0.00000

  C-Matrix calculated in cspmtx

  In cspmtx, C-Matrix calculated using fitted potential

-------------------------------------------



 -------------------------------------------
  COSMO surface
  Area             =          645.104
  Volume           =         1158.278
  Number of Points =         1502
 -------------------------------------------
 
 RIHartreeFock Dependency: number of modified vectors:           8
 cosmo_calcen: 0.5 (esolb+esolc) (Hartrees) =   -0.099643

 Solvation energy (screening term,uncorrected) =    -62.526787 kcal/mol

 Solvation energy (dispersion and cavitation terms) =      1.206295 kcal/mol
 Solvation Energy Contributions (Hartrees)
[...]
     8     H       0.743808   0.609401  -0.246820
     9     O      -0.044508  -0.048090   0.020727
    10     H       0.011915   0.007239  -0.084234
    11     H      -0.015994   0.025846   0.001226
    12     H       0.015564   0.023961  -0.026085
 
 Mode:    34      Frequency (cm-1):     3750.8556     Intensity (km/mol):      204.5979
 Index  Atom      ---- Displacements (x/y/z) ----
     1    Pa      -0.000007  -0.000023  -0.000006
     2    Cl       0.000197   0.000143  -0.000001
     3    Cl       0.000003   0.000017   0.000003
     4     O      -0.024914   0.045949  -0.013229
     5    Cl       0.000018   0.000003   0.000001
     6    Cl      -0.000018  -0.000006   0.000021
     7     O       0.000010   0.000063  -0.000072
     8     H       0.023880   0.027259  -0.012056
     9     O      -0.001628  -0.001129   0.000182
    10     H       0.001727  -0.005174   0.006080
    11     H       0.546072  -0.742982  -0.113956
    12     H      -0.155861   0.008334   0.328633
 
 Mode:    35      Frequency (cm-1):     3872.6437     Intensity (km/mol):      228.9127
 Index  Atom      ---- Displacements (x/y/z) ----
     1    Pa       0.000012   0.000008   0.000001
     2    Cl      -0.000092  -0.000052   0.000012
     3    Cl      -0.000001  -0.000009  -0.000008
     4     O       0.035773  -0.015903  -0.055155
     5    Cl      -0.000012   0.000000   0.000005
     6    Cl      -0.000006   0.000008  -0.000016
     7     O      -0.000004  -0.000054   0.000043
     8     H       0.010184   0.008451  -0.001689
     9     O      -0.000017  -0.002043   0.002415
    10     H      -0.011996   0.024460  -0.036761
    11     H      -0.201241   0.286396   0.016184
    12     H      -0.363355  -0.033573   0.858608
 
 Mode:    36      Frequency (cm-1):     3972.6286     Intensity (km/mol):      205.1859
 Index  Atom      ---- Displacements (x/y/z) ----
     1    Pa      -0.000183   0.000104   0.000006
     2    Cl      -0.000102   0.000094   0.000012
     3    Cl      -0.000045  -0.000017   0.000075
     4     O       0.002035  -0.000439  -0.001789
     5    Cl       0.000036  -0.000005  -0.000168
     6    Cl       0.000122  -0.000207   0.000005
     7     O      -0.000146   0.000604  -0.000009
     8     H       0.055461   0.060448  -0.060303
     9     O      -0.016418   0.026486  -0.047576
    10     H       0.244210  -0.528426   0.803343
    11     H      -0.015765   0.020468   0.005865
    12     H      -0.011818   0.005457   0.035890

 Vibrational polarizability tensor (a.u.):
                  X                   Y                   Z
 X            4507.31226           224.24940            -2.56903
 Y             224.24940          2861.26703           672.00644
 Z              -2.56903           672.00644          1480.11892

 Isotropic =      2949.6    atomic units

PES point character: Geometry corresponds to a local minimum on the PES.




 ============================
 Statistical Thermal Analysis  ***  ideal gas assumed  ***
 ============================
  
 Pressure:                  1.000000 atm.
 Temperature:             298.150000 K



 Moments of Inertia [amu*bohr^2] and principal axis
 ==================================================

        2552.3643       3542.8925       4092.7465
 ------------------------------------------------
           0.8841          0.4671          0.0117
           0.4523         -0.8494         -0.2721
           0.1172         -0.2458          0.9622


 The rotational contribution to the molecular entropy includes
 a term, dependent on the symmetry number sigma. The results 
 reported below were computed using sigma = 1, determined from
 the point group symmetry of the input geometry (NOSYM). 
 If this is not the correct symmetry, try symmetrizing the molecule before
 running the calculation (note: linear molecules should be aligned along one
 of the Cartesian axes).
 Contributions from frequencies below 20 1/cm are not included in vibrational sums.
 Their contributions, if any, are reported separately.


     Temp                                                        Transl      Rotat     Vibrat     Total
     ----                                                        ------      -----     ------     -----

     298.15   Entropy (cal/mol-K):                               44.016     31.982     56.044    132.042
              Nuclear Internal Energy (kcal/mol):                 0.889      0.889     42.999     44.776
              Constant Volume Heat Capacity (cal/mol-K):          2.981      2.981     39.707     45.668
          (c) Constant Volume Heat Capacity (cal/mol-K):          2.981      2.981     33.521     39.482

       Summary of energy terms
                                                   hartree              eV         kcal/mol           kJ/mol
                                      --------------------     -----------       ----------      -----------
      Energy from Engine:               -3.185432473400091        -86.6800         -1998.89         -8363.35
      Nuclear Internal Energy:           0.071355593377801          1.9417            44.78           187.34
  (c) Nuclear Internal Energy:           0.068223151887422          1.8564            42.81           179.12
      Internal Energy U:                -3.114076880022290        -84.7383         -1954.11         -8176.01
      pV/n = RT:                         0.000944186013486          0.0257             0.59             2.48
      Enthalpy H:                       -3.113132694008804        -84.7127         -1953.52         -8173.53
      -T*S:                             -0.062737557506487         -1.7072           -39.37          -164.72
  (c) -T*S:                             -0.059858213228702         -1.6288           -37.56          -157.16
      Gibbs free energy:                -3.175870251515291        -86.4198         -1992.89         -8338.25
 
 
 
  (c) The properties marked with this symbol have been corrected using 'low vibrational frequency free rotor
      interpolation corrections'. For those terms all positive frequencies are used (also ones below 20 1/cm),
      but the contribution to the partition function of small vibrational frequencies is modified as described
      in the following paper:
      S. Grimme, 'Supramolecular Binding Thermodynamics by Dispersion-Corrected Density Functional Theory'
      (Chem. Eur. J. 2012, 18, 9955-9964)
      Configuration: Dampener Frequency          :   100.000 1/cm
                     Dampener Alpha              :     4.000
                     Averaging Moment of Inertia : 1.000E-44 kg m2

--------------
Atomic charges
--------------
  Index   Atom    Charge
      1     Pa    1.7136
      2     Cl   -0.5470
      3     Cl   -0.5385
      4      O   -0.5131
      5     Cl   -0.5169
      6     Cl   -0.4399
      7      O   -0.7857
      8      H    0.2988
      9      O   -0.4506
     10      H    0.2100
     11      H    0.2898
     12      H    0.2796


Dipole moment vector    (Debye):    13.20378091    4.65386283    0.45084491
              magnitude (Debye):    14.00719568


-----------------------
Molecular orbitals info
-----------------------
n orbitals:              393
n spin:                    1

Note: only printing virtual orbitals with
      energy smaller than HOMO + 100. eV

HOMO (eV):              -8.2509
LUMO (eV):              -2.0135
HOMO-LUMO gap (eV):      6.2374

   Index   Energy (eV)    Occupation
     280       91.6292         0.000       
     279       88.4213         0.000       
     278       87.7569         0.000       
     277       86.6071         0.000       
     276       86.1299         0.000       
     275       85.9743         0.000       
     274       85.4440         0.000       
     273       82.6090         0.000       
     272       80.2097         0.000       
     271       79.1374         0.000       
     270       78.9376         0.000       
     269       77.5696         0.000       
     268       76.3205         0.000       
     267       75.8463         0.000       
     266       75.7959         0.000       
     265       74.8882         0.000       
     264       74.3431         0.000       
     263       74.2892         0.000       
     262       73.2740         0.000       
     261       72.9212         0.000       
     260       72.0649         0.000       
     259       71.9806         0.000       
     258       71.7716         0.000       
     257       71.1048         0.000       
     256       70.3656         0.000       
     255       69.9619         0.000       
     254       69.5406         0.000       
     253       68.9094         0.000       
     252       68.6482         0.000       
     251       68.0304         0.000       
     250       67.6278         0.000       
     249       67.1756         0.000       
     248       66.7255         0.000       
     247       65.9020         0.000       
     246       65.7209         0.000       
     245       62.7419         0.000       
     244       61.6333         0.000       
     243       59.6911         0.000       
     242       59.2477         0.000       
     241       58.0850         0.000       
     240       57.4264         0.000       
     239       56.3685         0.000       
     238       55.9789         0.000       
     237       54.4937         0.000       
     236       52.5548         0.000       
     235       51.9916         0.000       
     234       51.3239         0.000       
     233       49.8825         0.000       
     232       49.4847         0.000       
     231       48.8147         0.000       
     230       46.0964         0.000       
     229       44.3594         0.000       
     228       43.1659         0.000       
     227       42.8564         0.000       
     226       42.2685         0.000       
     225       41.7394         0.000       
     224       41.0883         0.000       
     223       40.7944         0.000       
     222       40.4603         0.000       
     221       39.9860         0.000       
     220       39.5480         0.000       
     219       39.2763         0.000       
     218       39.0544         0.000       
     217       38.9717         0.000       
     216       38.3195         0.000       
     215       37.8069         0.000       
     214       37.6095         0.000       
     213       37.3264         0.000       
     212       37.2398         0.000       
     211       37.1319         0.000       
     210       37.0154         0.000       
     209       36.7869         0.000       
     208       36.7106         0.000       
     207       36.5811         0.000       
     206       36.4898         0.000       
     205       36.4766         0.000       
     204       36.3864         0.000       
     203       36.2283         0.000       
     202       36.0736         0.000       
     201       36.0199         0.000       
     200       35.8186         0.000       
     199       35.7371         0.000       
     198       35.2382         0.000       
     197       35.0057         0.000       
     196       34.8605         0.000       
     195       34.3885         0.000       
     194       34.0678         0.000       
     193       32.8709         0.000       
     192       32.7840         0.000       
     191       32.0626         0.000       
     190       31.0766         0.000       
     189       30.5652         0.000       
     188       29.7434         0.000       
     187       28.8278         0.000       
     186       27.2995         0.000       
     185       26.6438         0.000       
     184       25.2078         0.000       
     183       24.7090         0.000       
     182       24.3939         0.000       
     181       24.0545         0.000       
     180       23.8469         0.000       
     179       23.3322         0.000       
     178       22.9495         0.000       
     177       22.5867         0.000       
     176       22.3650         0.000       
     175       22.1947         0.000       
     174       21.9158         0.000       
     173       21.1768         0.000       
     172       20.4916         0.000       
     171       20.2082         0.000       
     170       19.6317         0.000       
     169       19.2621         0.000       
     168       19.1147         0.000       
     167       18.0102         0.000       
     166       17.8278         0.000       
     165       17.4687         0.000       
     164       17.3118         0.000       
     163       16.8247         0.000       
     162       16.3973         0.000       
     161       16.0841         0.000       
     160       16.0159         0.000       
     159       15.7940         0.000       
     158       15.4764         0.000       
     157       15.4274         0.000       
     156       15.0699         0.000       
     155       14.7823         0.000       
     154       14.5570         0.000       
     153       14.3094         0.000       
     152       14.2774         0.000       
     151       13.8885         0.000       
     150       13.7935         0.000       
     149       13.6467         0.000       
     148       13.5554         0.000       
     147       13.4876         0.000       
     146       13.2083         0.000       
     145       12.9039         0.000       
     144       12.4668         0.000       
     143       12.0379         0.000       
     142       11.9234         0.000       
     141       11.2397         0.000       
     140       11.0198         0.000       
     139       10.8526         0.000       
     138       10.6325         0.000       
     137       10.5692         0.000       
     136       10.2110         0.000       
     135       10.0999         0.000       
     134        9.6678         0.000       
     133        9.5258         0.000       
     132        9.3377         0.000       
     131        9.2439         0.000       
     130        8.9678         0.000       
     129        8.8275         0.000       
     128        8.5864         0.000       
     127        8.4715         0.000       
     126        7.9727         0.000       
     125        7.8089         0.000       
     124        7.6113         0.000       
     123        7.3399         0.000       
     122        7.0728         0.000       
     121        6.7058         0.000       
     120        6.0164         0.000       
     119        5.2597         0.000       
     118        4.8245         0.000       
     117        4.3651         0.000       
     116        3.8576         0.000       
     115        3.6361         0.000       
     114        3.3389         0.000       
     113        2.8749         0.000       
     112        2.7661         0.000       
     111        2.5925         0.000       
     110        2.4555         0.000       
     109        2.1522         0.000       
     108        1.9592         0.000       
     107        1.7735         0.000       
     106        1.5413         0.000       
     105        1.1516         0.000       
     104        0.8801         0.000       
     103       -0.0192         0.000       
     102       -0.3270         0.000       
     101       -0.9277         0.000       
     100       -1.5592         0.000       
      99       -1.5989         0.000       
      98       -1.8297         0.000       
      97       -1.8353         0.000       
      96       -1.9203         0.000       
      95       -2.0135         0.000 < LUMO
      94       -8.2509         2.000 < HOMO
      93       -8.2997         2.000       
      92       -8.4727         2.000       
      91       -8.5841         2.000       
      90       -8.7340         2.000       
      89       -8.7883         2.000       
      88       -8.9524         2.000       
      87       -9.0831         2.000       
      86       -9.2301         2.000       
      85       -9.2532         2.000       
      84       -9.3333         2.000       
      83       -9.9609         2.000       
      82      -10.0395         2.000       
      81      -10.2147         2.000       
      80      -10.4466         2.000       
      79      -10.5081         2.000       
      78      -10.8911         2.000       
      77      -11.8643         2.000       
      76      -13.3722         2.000       
      75      -15.5991         2.000       
      74      -16.2239         2.000       
      73      -20.7283         2.000       
      72      -21.2311         2.000       
      71      -21.5267         2.000       
      70      -21.8781         2.000       
      69      -22.7414         2.000       
      68      -25.8213         2.000       
      67      -26.1150         2.000       
      66      -29.0871         2.000       
      65      -29.7418         2.000       
      64      -29.9166         2.000       
      63      -50.4343         2.000       
      62     -100.2873         2.000       
      61     -100.3319         2.000       
      60     -100.3389         2.000       
      59     -100.4376         2.000       
      58     -100.4409         2.000       
      57     -196.2658         2.000       
      56     -196.2789         2.000       
      55     -196.3001         2.000       
      54     -196.3243         2.000       
      53     -196.3295         2.000       
      52     -196.3381         2.000       
      51     -196.3401         2.000       
      50     -196.3583         2.000       
      49     -196.3609         2.000       
      48     -196.5972         2.000       
      47     -196.6013         2.000       
      46     -196.6323         2.000       
      45     -207.4222         2.000       
      44     -207.6929         2.000       
      43     -207.7075         2.000       
      42     -259.8326         2.000       
      41     -259.8910         2.000       
      40     -259.8946         2.000       
      39     -260.1621         2.000       
      38     -306.1282         2.000       
      37     -361.3647         2.000       
      36     -361.3973         2.000       
      35     -361.4068         2.000       
      34     -361.5328         2.000       
      33     -361.5489         2.000       
      32     -361.6768         2.000       
      31     -361.6773         2.000       
      30     -522.7899         2.000       
      29     -523.8891         2.000       
      28     -524.2195         2.000       
      27     -713.1816         2.000       
      26     -713.3330         2.000       
      25     -713.3421         2.000       
      24     -713.5132         2.000       
      23     -713.5411         2.000       
      22    -1041.4625         2.000       
      21    -1041.7805         2.000       
      20    -1041.7965         2.000       
      19    -1359.8591         2.000       
      18    -2776.0141         2.000       
      17    -2776.0750         2.000       
      16    -2776.0754         2.000       
      15    -2776.3437         2.000       
      14    -3485.0641         2.000       
      13    -3485.1219         2.000       
      12    -3485.1257         2.000       
      11    -3485.2068         2.000       
      10    -3485.2172         2.000       
       9    -4347.2751         2.000       
       8    -4347.4531         2.000       
       7    -4347.4615         2.000       
       6    -5318.4574         2.000       
       5   -17561.4059         2.000       
       4   -17561.4315         2.000       
       3   -17561.4324         2.000       
       2   -21037.2142         2.000       
       1  -112699.0088         2.000       

Final PES point is a local minimum. Geometry optimization successful!


AMS application finished. Exiting.
NORMAL TERMINATION
     Total cpu time:   27385.16
  Total system time:     643.97
 Total elapsed time:   28039.78
