

 Parallel Execution: Process Information
 ==============================================================================
 Rank   Node Name                              NodeID   MyNodeRank  NodeMaster
    0   u-3-5.local                               0          0          0
    1   u-3-5.local                               0          1         -1
    2   u-3-5.local                               0          2         -1
    3   u-3-5.local                               0          3         -1
    4   u-3-5.local                               0          4         -1
    5   u-3-5.local                               0          5         -1
    6   u-3-5.local                               0          6         -1
    7   u-3-5.local                               0          7         -1
    8   u-3-5.local                               1          0          1
    9   u-3-5.local                               1          1         -1
   10   u-3-5.local                               1          2         -1
   11   u-3-5.local                               1          3         -1
   12   u-3-5.local                               1          4         -1
   13   u-3-5.local                               1          5         -1
   14   u-3-5.local                               1          6         -1
   15   u-3-5.local                               1          7         -1
 ==============================================================================


May use up to 15607MB of RAM as shared memory on node 0
May use up to 15625MB of RAM as shared memory on node 1

 *******************************************************************************
 *                                                                             *
 *  --------------------------------                                           *
 *   Amsterdam Modeling Suite (AMS)              2023.104                      *
 *  --------------------------------                                           *
 *                                               r115785 2023-10-06            *
 *                                                                             *
 *                                                                             *
 *                              =================                              *
 *                              |               |                              *
 *                              |     A M S     |                              *
 *                              |               |                              *
 *                              =================                              *
 *                                                                             *
 *                                                                             *
 *   Online information and documentation:  https://www.scm.com/support/       *
 *   E-mail:  support@scm.com   info@scm.com                                   *
 *                                                                             *
 *   Scientific publications using AMS results must be properly referenced     *
 *   See the User Manuals (or the web site) for recommended citations          *
 *   The terms and conditions of the End User License Agreement apply to       *
 *   the use of AMS, https://www.scm.com/license-terms/                        *
 *                                                                             *
 **********************  x86_64_linux_intel / intelmpi  ************************
 
 Licensed to: Dr. Val?rie Vallet / Laboratoire PhLAM UMR 8523 / Villeneuve d'Ascq Cedex / FRANCE 2024-02-19 16:59:55
 SCM User ID: u10325
  
 AMS 2023.104  RunTime: Jun18-2024 12:01:25  ShM Nodes: 2  Procs: 16

 AMS jobname: pao_cl4_2h2o.pbe0.tz2zp.opt-freq-solvation
 AMS jobid  : 967912470

 Start   directory: /home/shaaban/ams/PhD/geometries-exafs/pao-chloride/pao_cl4_2h2o/PBE0/
 Results directory: /home/shaaban/ams/PhD/geometries-exafs/pao-chloride/pao_cl4_2h2o/PBE0/pao_cl4_2h2o.pbe0.tz2zp.opt-freq-solvation.results/
 Scratch directory: /state/partition1/shaaban/1020962.phlam-s-sakura/amstmp_pao_cl4_2h2o.pbe0.tz2zp.opt-freq-solvation_kid0.967912470/


 Communication costs MPI_COMM_WORLD:      2.696 usec per message,   0.0086 usec per 8-byte item
 Communication costs for intra-node:      1.326 usec per message,   0.0046 usec per 8-byte item

 RNG seed: -800050944 579301492 -1374332492 -1313219816 -89127807 -1404986129 1068026293 -1056466260



                     *************************************************************************
                     *  ADF 2023.104  RunTime: Jun18-2024 12:01:26  ShM Nodes: 2  Procs: 16  *
                     *************************************************************************
  

       ***************************
       *  GEOMETRY OPTIMIZATION  *
       ***************************

Optimization Method                    Quasi Newton
Optimization Coordinates               Delocalized Coordinates
Optimize lattice                       F
 
 ------------------------------------------------------
 Convergence criteria (Hartree,Angstrom)
 ------------------------------------------------------
 Maximum gradient               0.000100000000
 Maximum rms gradient           0.000066666667
 Maximum step allowed           0.001000000000
 Maximum rms step allowed       0.000666666667
 Maximum energy change allowe   0.000012000000
 Maximum stress energy allowe   0.000500000000
 
Initial model Hessian                  Automatic Hessian
 
------------------------------------
Quasi-Newton Optimizer Parameters
------------------------------------
Hessian Update Method                  BFGS
Maximum number of steps                  250
First GDIIS cycle                          0
Maximum GDIIS vectors                      0
Trust radius (bohr)                        0.200000
Trust radius varies                        T
Constraints converged at all steps         T
Use projector                              T
 
 Rigid motions settings for: old optimizer
 Atomic rotations (x,y,z):     T T T
 Atomic translations (x,y,z):  T T T
 Tolerance:                   1.000000000000000E-006
 
--------
Geometry
--------
Formula: H4Cl4O3Pa
Atoms
  Index Symbol   x (angstrom)   y (angstrom)   z (angstrom)
      1     Pa    -0.41663136    -0.73098762     0.54245901       adf.R=2.200
      2     Cl    -0.57476238     1.74626176    -0.65277964       adf.R=1.725
      3     Cl    -0.53361304    -2.93622038     2.18431061       adf.R=1.725
      4     Cl     2.09720289    -0.21488137     1.29415694       adf.R=1.725
      5     Cl    -2.65035597    -1.51245522    -0.69786546       adf.R=1.725
      6      O     0.56611176    -0.69266393    -1.89317437       adf.R=1.517
      7      O    -1.23693725     0.12050120     1.95887788       adf.R=1.517
      8      H     0.26125152    -1.35533875    -2.53748980       adf.R=1.350
      9      H     0.31318221     0.17874919    -2.25240370       adf.R=1.350
     10      H     0.69983739    -3.53658723     0.20219099       adf.R=1.350
     11      H     1.56774204    -2.82966706    -0.88488042       adf.R=1.350
     12      O     0.66638342    -2.88346029    -0.52186405       adf.R=1.517
 
Total System Charge            -1.00000
Bonding info available!
 
 
----------------
ADF Engine Input
----------------
 
 Basis
 Type TZ2P
 Core None
 End
 XC
 Hybrid PBE0
 End
 Solvation
 Surf Delley
 Solv name=Water cav0=0.0 cav1=0.0067639
 Charged method=CONJ
 C-Mat POT
 SCF VAR ALL
 CSMRSP
 End
 NumericalQuality Good
 

 Title: *** (NO TITLE) ***

 Using automatic Hessian for delocalized coordinates.
 *** GO1_GOStep1 ***

 SOLVATION
-------------------------------------------

  The Delley construction of COSMO surface surface is calculated

       Division Level for Surface Triangles (NDIV)                  3
       Final Division Level for Triangles (NFDIV)                   1
       Radius of the Solvent (RSOL)                           1.93000 angstr
  Dielectric Constant (EPSL)                                 78.39000

       COSMO equation is solved iteratively-               conjugate-gradient

       Maximun of Iterations for Charges (NCIX)                  1000
       Criterion for Charge convergence (CCNV)                1.0E-08

  COSMO charges included variationally in SCF

       COSMO included at every SCF cycle

  Geometry-dependent empirical factor                         0.00000

  C-Matrix calculated in cspmtx

  In cspmtx, C-Matrix calculated using fitted potential

-------------------------------------------



 -------------------------------------------
  COSMO surface
  Area             =          629.888
  Volume           =         1170.003
  Number of Points =         1461
 -------------------------------------------



 ======================
 RI Hartree-Fock Scheme
 ======================
  
 Fit Set Quality     : GOOD
 Threshold Quality   : GOOD
 Integration Quality : GOOD
 Fit Generation Method : AUTO
 Response Quality    : DEFAULT
 Is Range Separated  :  F
 
 RIHartreeFock Dependency: number of modified vectors:           8
 cosmo_calcen: 0.5 (esolb+esolc) (Hartrees) =   -0.111421

 Solvation energy (screening term,uncorrected) =    -69.917773 kcal/mol

 Solvation energy (dispersion and cavitation terms) =      1.177841 kcal/mol
 Solvation Energy Contributions (Hartrees)
          esola   esolb+esolc
     0.11142105   -0.22284210
 esol last cycle   -0.11142105
  
 Hartree-Fock exchange energy:   -603.331135396992     
 cosmo_calcen: 0.5 (esolb+esolc) (Hartrees) =   -0.111421

 Solvation energy (screening term,uncorrected) =    -69.917781 kcal/mol

 Solvation energy (dispersion and cavitation terms) =      1.177841 kcal/mol
 Solvation Energy Contributions (Hartrees)
          esola   esolb+esolc
     0.11142106   -0.22284213
 esol last cycle   -0.11142106

 Energy gradients wrt nuclear displacements
 ==========================================

     Atom      Cartesian (a.u./angstrom)
                 X         Y         Z
 ----------------------------------------
     1 Pa    0.013161 -0.014266 -0.018447
     2 Cl   -0.001546  0.012479 -0.005488
     3 Cl   -0.000714 -0.009933  0.008201
     4 Cl    0.012793  0.003435  0.004021
     5 Cl   -0.011931 -0.003496 -0.006083
     6 O     0.013605 -0.003122  0.009339
     7 O    -0.017121  0.017790  0.029252
     8 H    -0.005387 -0.010180 -0.010653
     9 H    -0.004728  0.012667 -0.005194
    10 H     0.000763 -0.008800  0.010687
    11 H     0.014511  0.000669 -0.005508
    12 O    -0.013406  0.002756 -0.010128
 ----------------------------------------
 Mulliken charges used for AMS results%charges...
 
----------------------------------------------------------------------
Geometry Convergence after Step   1       (Hartree/Angstrom,Angstrom)
----------------------------------------------------------------------
current energy                               -3.17312110 Hartree
energy change                      -3.17312110     0.00001200    F
constrained gradient max            0.02912070     0.00010000    F
constrained gradient rms            0.01103208     0.00006667    F
gradient max                        0.02912070
gradient rms                        0.01103208
cart. step max                      0.01596488     0.00100000    F
cart. step rms                      0.00791784     0.00066667    F
 
 
--------
Geometry
--------
Formula: H4Cl4O3Pa
Atoms
  Index Symbol   x (angstrom)   y (angstrom)   z (angstrom)
      1     Pa    -0.41810527    -0.73094099     0.53934473       adf.R=2.200
      2     Cl    -0.56131177     1.74008283    -0.65201261       adf.R=1.725
      3     Cl    -0.53620679    -2.93425366     2.17100679       adf.R=1.725
      4     Cl     2.09078783    -0.22948983     1.28952920       adf.R=1.725
      5     Cl    -2.64322537    -1.51403394    -0.69835851       adf.R=1.725
      6      O     0.55279375    -0.68811938    -1.89592016       adf.R=1.517
      7      O    -1.22886224     0.11256819     1.94363815       adf.R=1.517
      8      H     0.24901688    -1.34445494    -2.53494664       adf.R=1.350
      9      H     0.30633122     0.17838012    -2.25121176       adf.R=1.350
     10      H     0.70596298    -3.52936149     0.20897478       adf.R=1.350
     11      H     1.56814652    -2.82620443    -0.86891554       adf.R=1.350
     12      O     0.67408347    -2.88092219    -0.50959045       adf.R=1.517
 
Total System Charge            -1.00000
Bonding info available!
 
 *** GO1_GOStep2 ***

 SOLVATION
-------------------------------------------

  The Delley construction of COSMO surface surface is calculated

       Division Level for Surface Triangles (NDIV)                  3
       Final Division Level for Triangles (NFDIV)                   1
       Radius of the Solvent (RSOL)                           1.93000 angstr
  Dielectric Constant (EPSL)                                 78.39000

       COSMO equation is solved iteratively-               conjugate-gradient

       Maximun of Iterations for Charges (NCIX)                  1000
       Criterion for Charge convergence (CCNV)                1.0E-08

  COSMO charges included variationally in SCF

       COSMO included at every SCF cycle

  Geometry-dependent empirical factor                         0.00000

  C-Matrix calculated in cspmtx

  In cspmtx, C-Matrix calculated using fitted potential

-------------------------------------------



 -------------------------------------------
  COSMO surface
  Area             =          627.220
  Volume           =         1164.875
  Number of Points =         1457
 -------------------------------------------



 ======================
 RI Hartree-Fock Scheme
 ======================
  
 Fit Set Quality     : GOOD
 Threshold Quality   : GOOD
 Integration Quality : GOOD
 Fit Generation Method : AUTO
 Response Quality    : DEFAULT
 Is Range Separated  :  F
 
 RIHartreeFock Dependency: number of modified vectors:           8
 cosmo_calcen: 0.5 (esolb+esolc) (Hartrees) =   -0.110288

 Solvation energy (screening term,uncorrected) =    -69.206521 kcal/mol

 Solvation energy (dispersion and cavitation terms) =      1.172852 kcal/mol
 Solvation Energy Contributions (Hartrees)
          esola   esolb+esolc
     0.11028760   -0.22057520
 esol last cycle   -0.11028760
  
 Hartree-Fock exchange energy:   -603.369194207170     
 cosmo_calcen: 0.5 (esolb+esolc) (Hartrees) =   -0.110288

 Solvation energy (screening term,uncorrected) =    -69.206530 kcal/mol

 Solvation energy (dispersion and cavitation terms) =      1.172852 kcal/mol
 Solvation Energy Contributions (Hartrees)
          esola   esolb+esolc
     0.11028761   -0.22057523
 esol last cycle   -0.11028761

 Energy gradients wrt nuclear displacements
 ==========================================

     Atom      Cartesian (a.u./angstrom)
                 X         Y         Z
 ----------------------------------------
     1 Pa    0.002585 -0.003419 -0.000841
     2 Cl   -0.000829  0.009095 -0.004883
     3 Cl    0.000061 -0.007726  0.005313
     4 Cl    0.009191  0.002405  0.002839
     5 Cl   -0.008672 -0.002544 -0.004370
     6 O     0.005104 -0.000062 -0.003247
     7 O    -0.005620  0.005918  0.009570
     8 H    -0.001234  0.000171 -0.001030
     9 H    -0.001478  0.001065 -0.000791
    10 H     0.000790 -0.000604  0.001268
    11 H     0.001230 -0.000330  0.000475
    12 O    -0.001128 -0.003970 -0.004302
 ----------------------------------------
 Mulliken charges used for AMS results%charges...

 dE(predicted):    -0.85018E-03, dE(actual):    -0.11835E-02, Trust radius:    0.200000, all in a.u.
 
----------------------------------------------------------------------
Geometry Convergence after Step   2       (Hartree/Angstrom,Angstrom)
----------------------------------------------------------------------
current energy                               -3.17430463 Hartree
energy change                      -0.00118353     0.00001200    F
constrained gradient max            0.00943266     0.00010000    F
constrained gradient rms            0.00426348     0.00006667    F
gradient max                        0.00943266
gradient rms                        0.00426348
cart. step max                      0.02310033     0.00100000    F
cart. step rms                      0.01138711     0.00066667    F
 
 
--------
Geometry
--------
Formula: H4Cl4O3Pa
Atoms
  Index Symbol   x (angstrom)   y (angstrom)   z (angstrom)
      1     Pa    -0.42208147    -0.72915771     0.53785329       adf.R=2.200
      2     Cl    -0.54244999     1.73839185    -0.63572727       adf.R=1.725
      3     Cl    -0.55367989    -2.92470578     2.16092954       adf.R=1.725
      4     Cl     2.07967155    -0.25212836     1.28871947       adf.R=1.725
      5     Cl    -2.63535453    -1.51039607    -0.69807325       adf.R=1.725
      6      O     0.53503857    -0.69955195    -1.89555238       adf.R=1.517
      7      O    -1.22400951     0.10808847     1.93363417       adf.R=1.517
      8      H     0.23319469    -1.35809460    -2.52902227       adf.R=1.350
      9      H     0.30087134     0.16532200    -2.25463811       adf.R=1.350
     10      H     0.72129469    -3.51680807     0.20610362       adf.R=1.350
     11      H     1.57809983    -2.80310410    -0.86770998       adf.R=1.350
     12      O     0.68881593    -2.86460539    -0.50497883       adf.R=1.517
 
Total System Charge            -1.00000
Bonding info available!
 
 *** GO1_GOStep3 ***

 SOLVATION
-------------------------------------------

  The Delley construction of COSMO surface surface is calculated

       Division Level for Surface Triangles (NDIV)                  3
       Final Division Level for Triangles (NFDIV)                   1
       Radius of the Solvent (RSOL)                           1.93000 angstr
  Dielectric Constant (EPSL)                                 78.39000

       COSMO equation is solved iteratively-               conjugate-gradient

       Maximun of Iterations for Charges (NCIX)                  1000
       Criterion for Charge convergence (CCNV)                1.0E-08

  COSMO charges included variationally in SCF

       COSMO included at every SCF cycle

  Geometry-dependent empirical factor                         0.00000

  C-Matrix calculated in cspmtx

  In cspmtx, C-Matrix calculated using fitted potential

-------------------------------------------



 -------------------------------------------
  COSMO surface
  Area             =          623.488
  Volume           =         1158.205
  Number of Points =         1454
 -------------------------------------------



 ======================
 RI Hartree-Fock Scheme
 ======================
  
 Fit Set Quality     : GOOD
 Threshold Quality   : GOOD
 Integration Quality : GOOD
 Fit Generation Method : AUTO
 Response Quality    : DEFAULT
 Is Range Separated  :  F
 
 RIHartreeFock Dependency: number of modified vectors:           8
 cosmo_calcen: 0.5 (esolb+esolc) (Hartrees) =   -0.110009

 Solvation energy (screening term,uncorrected) =    -69.031418 kcal/mol

 Solvation energy (dispersion and cavitation terms) =      1.165875 kcal/mol
 Solvation Energy Contributions (Hartrees)
          esola   esolb+esolc
     0.11000856   -0.22001711
 esol last cycle   -0.11000856
  
 Hartree-Fock exchange energy:   -603.396857448163     
 cosmo_calcen: 0.5 (esolb+esolc) (Hartrees) =   -0.110009

 Solvation energy (screening term,uncorrected) =    -69.031437 kcal/mol

 Solvation energy (dispersion and cavitation terms) =      1.165875 kcal/mol
 Solvation Energy Contributions (Hartrees)
          esola   esolb+esolc
     0.11000859   -0.22001717
 esol last cycle   -0.11000859

 Energy gradients wrt nuclear displacements
 ==========================================

     Atom      Cartesian (a.u./angstrom)
                 X         Y         Z
 ----------------------------------------
     1 Pa   -0.006677  0.006057  0.014076
     2 Cl   -0.000637  0.006098 -0.002980
     3 Cl    0.000101 -0.004621  0.003419
     4 Cl    0.004525  0.000992  0.001241
     5 Cl   -0.004368 -0.001296 -0.002159
     6 O     0.001302  0.000096 -0.007526
     7 O     0.004586 -0.004661 -0.007861
     8 H     0.000531  0.002937  0.002490
     9 H     0.000008 -0.002966  0.001836
    10 H    -0.000041  0.002745 -0.002067
    11 H    -0.003367 -0.000287  0.001737
    12 O     0.004038 -0.005094 -0.002207
 ----------------------------------------
 Mulliken charges used for AMS results%charges...

 dE(predicted):    -0.40816E-03, dE(actual):    -0.49393E-03, Trust radius:    0.200000, all in a.u.
 
----------------------------------------------------------------------
Geometry Convergence after Step   3       (Hartree/Angstrom,Angstrom)
----------------------------------------------------------------------
current energy                               -3.17479856 Hartree
energy change                      -0.00049393     0.00001200    F
constrained gradient max            0.01402090     0.00010000    F
constrained gradient rms            0.00431585     0.00006667    F
gradient max                        0.01402090
gradient rms                        0.00431585
cart. step max                      0.01900983     0.00100000    F
cart. step rms                      0.00900860     0.00066667    F
 
 
--------
Geometry
--------
Formula: H4Cl4O3Pa
Atoms
  Index Symbol   x (angstrom)   y (angstrom)   z (angstrom)
      1     Pa    -0.42364633    -0.72881684     0.53508512       adf.R=2.200
      2     Cl    -0.52344017     1.73513253    -0.62515825       adf.R=1.725
      3     Cl    -0.56729813    -2.92047579     2.14812005       adf.R=1.725
      4     Cl     2.07256615    -0.26916130     1.28781969       adf.R=1.725
      5     Cl    -2.62861404    -1.50714860    -0.70013102       adf.R=1.725
      6      O     0.51762335    -0.70286980    -1.89837732       adf.R=1.517
      7      O    -1.22344656     0.10780748     1.93185139       adf.R=1.517
      8      H     0.21705754    -1.36419218    -2.53026837       adf.R=1.350
      9      H     0.29183279     0.16266281    -2.26184543       adf.R=1.350
     10      H     0.73460821    -3.51283865     0.21146494       adf.R=1.350
     11      H     1.59026472    -2.79073301    -0.86129667       adf.R=1.350
     12      O     0.70190367    -2.85611635    -0.49572613       adf.R=1.517
 
Total System Charge            -1.00000
Bonding info available!
 
 *** GO1_GOStep4 ***

 SOLVATION
-------------------------------------------

  The Delley construction of COSMO surface surface is calculated

       Division Level for Surface Triangles (NDIV)                  3
       Final Division Level for Triangles (NFDIV)                   1
       Radius of the Solvent (RSOL)                           1.93000 angstr
  Dielectric Constant (EPSL)                                 78.39000

       COSMO equation is solved iteratively-               conjugate-gradient

       Maximun of Iterations for Charges (NCIX)                  1000
       Criterion for Charge convergence (CCNV)                1.0E-08

  COSMO charges included variationally in SCF

       COSMO included at every SCF cycle

  Geometry-dependent empirical factor                         0.00000

  C-Matrix calculated in cspmtx

  In cspmtx, C-Matrix calculated using fitted potential

-------------------------------------------



 -------------------------------------------
  COSMO surface
  Area             =          622.753
  Volume           =         1156.922
  Number of Points =         1454
 -------------------------------------------



 ======================
 RI Hartree-Fock Scheme
 ======================
  
 Fit Set Quality     : GOOD
 Threshold Quality   : GOOD
 Integration Quality : GOOD
 Fit Generation Method : AUTO
 Response Quality    : DEFAULT
 Is Range Separated  :  F
 
 RIHartreeFock Dependency: number of modified vectors:           8
 cosmo_calcen: 0.5 (esolb+esolc) (Hartrees) =   -0.110310

 Solvation energy (screening term,uncorrected) =    -69.220833 kcal/mol

 Solvation energy (dispersion and cavitation terms) =      1.164499 kcal/mol
 Solvation Energy Contributions (Hartrees)
          esola   esolb+esolc
     0.11031041   -0.22062081
 esol last cycle   -0.11031041
  
 Hartree-Fock exchange energy:   -603.404369490965     
 cosmo_calcen: 0.5 (esolb+esolc) (Hartrees) =   -0.110310

 Solvation energy (screening term,uncorrected) =    -69.220830 kcal/mol

 Solvation energy (dispersion and cavitation terms) =      1.164499 kcal/mol
 Solvation Energy Contributions (Hartrees)
          esola   esolb+esolc
     0.11031040   -0.22062080
 esol last cycle   -0.11031040

 Energy gradients wrt nuclear displacements
 ==========================================

     Atom      Cartesian (a.u./angstrom)
                 X         Y         Z
 ----------------------------------------
     1 Pa   -0.007798  0.007080  0.015094
     2 Cl   -0.000323  0.003622 -0.001954
     3 Cl    0.000411 -0.002558  0.001626
     4 Cl    0.001606  0.000109  0.000236
     5 Cl   -0.001623 -0.000531 -0.000769
     6 O     0.000833  0.000524 -0.006095
     7 O     0.006150 -0.006230 -0.010389
     8 H     0.000274  0.001896  0.002008
     9 H     0.000094 -0.001910  0.001746
    10 H    -0.000431  0.002043 -0.001488
    11 H    -0.002416  0.000034  0.001062
    12 O     0.003223 -0.004079 -0.001077
 ----------------------------------------
 Mulliken charges used for AMS results%charges...

 dE(predicted):    -0.14833E-03, dE(actual):    -0.23290E-03, Trust radius:    0.200000, all in a.u.
 
----------------------------------------------------------------------
Geometry Convergence after Step   4       (Hartree/Angstrom,Angstrom)
----------------------------------------------------------------------
current energy                               -3.17503146 Hartree
energy change                      -0.00023290     0.00001200    F
constrained gradient max            0.01503811     0.00010000    F
constrained gradient rms            0.00424852     0.00006667    F
gradient max                        0.01503811
gradient rms                        0.00424852
cart. step max                      0.03103912     0.00100000    F
cart. step rms                      0.01524152     0.00066667    F
 
 
--------
Geometry
--------
Formula: H4Cl4O3Pa
Atoms
  Index Symbol   x (angstrom)   y (angstrom)   z (angstrom)
      1     Pa    -0.42514626    -0.72838099     0.53171478       adf.R=2.200
      2     Cl    -0.49240105     1.73188435    -0.60346897       adf.R=1.725
      3     Cl    -0.59552633    -2.91388018     2.12978499       adf.R=1.725
      4     Cl     2.06273234    -0.29171729     1.29028434       adf.R=1.725
      5     Cl    -2.61997289    -1.49782443    -0.70392469       adf.R=1.725
      6      O     0.49039869    -0.71401440    -1.90160140       adf.R=1.517
      7      O    -1.22577320     0.11042154     1.93575037       adf.R=1.517
      8      H     0.19368218    -1.38176425    -2.53028509       adf.R=1.350
      9      H     0.27658885     0.15040160    -2.27697350       adf.R=1.350
     10      H     0.76105369    -3.50513217     0.21389245       adf.R=1.350
     11      H     1.61006593    -2.76720547    -0.85780291       adf.R=1.350
     12      O     0.72370926    -2.83953801    -0.48583237       adf.R=1.517
 
Total System Charge            -1.00000
Bonding info available!
 
 *** GO1_GOStep5 ***

 SOLVATION
-------------------------------------------

  The Delley construction of COSMO surface surface is calculated

       Division Level for Surface Triangles (NDIV)                  3
       Final Division Level for Triangles (NFDIV)                   1
       Radius of the Solvent (RSOL)                           1.93000 angstr
  Dielectric Constant (EPSL)                                 78.39000

       COSMO equation is solved iteratively-               conjugate-gradient

       Maximun of Iterations for Charges (NCIX)                  1000
       Criterion for Charge convergence (CCNV)                1.0E-08

  COSMO charges included variationally in SCF

       COSMO included at every SCF cycle

  Geometry-dependent empirical factor                         0.00000

  C-Matrix calculated in cspmtx

  In cspmtx, C-Matrix calculated using fitted potential

-------------------------------------------



 -------------------------------------------
  COSMO surface
  Area             =          621.196
  Volume           =         1153.737
  Number of Points =         1448
 -------------------------------------------



 ======================
 RI Hartree-Fock Scheme
 ======================
  
 Fit Set Quality     : GOOD
 Threshold Quality   : GOOD
 Integration Quality : GOOD
 Fit Generation Method : AUTO
 Response Quality    : DEFAULT
 Is Range Separated  :  F
 
 RIHartreeFock Dependency: number of modified vectors:           8
 cosmo_calcen: 0.5 (esolb+esolc) (Hartrees) =   -0.111587

 Solvation energy (screening term,uncorrected) =    -70.021826 kcal/mol

 Solvation energy (dispersion and cavitation terms) =      1.161588 kcal/mol
 Solvation Energy Contributions (Hartrees)
          esola   esolb+esolc
     0.11158687   -0.22317374
 esol last cycle   -0.11158687
  
 Hartree-Fock exchange energy:   -603.407332183749     
 cosmo_calcen: 0.5 (esolb+esolc) (Hartrees) =   -0.111587

 Solvation energy (screening term,uncorrected) =    -70.021835 kcal/mol

 Solvation energy (dispersion and cavitation terms) =      1.161588 kcal/mol
 Solvation Energy Contributions (Hartrees)
          esola   esolb+esolc
     0.11158688   -0.22317377
 esol last cycle   -0.11158688

 Energy gradients wrt nuclear displacements
 ==========================================

     Atom      Cartesian (a.u./angstrom)
                 X         Y         Z
 ----------------------------------------
     1 Pa   -0.004330  0.003419  0.007664
     2 Cl   -0.000151  0.000654 -0.000163
     3 Cl    0.000405  0.000199 -0.000091
     4 Cl   -0.001981 -0.000927 -0.001071
     5 Cl    0.001867  0.000382  0.000983
     6 O     0.000998 -0.000344 -0.002705
     7 O     0.003369 -0.003235 -0.005215
     8 H    -0.000336  0.000085  0.000519
     9 H    -0.000147  0.000309  0.001127
    10 H    -0.000706  0.000479  0.000031
    11 H    -0.000366  0.000305 -0.000079
    12 O     0.001378 -0.001325 -0.001000
 ----------------------------------------
 Mulliken charges used for AMS results%charges...

 dE(predicted):    -0.18279E-03, dE(actual):    -0.19886E-03, Trust radius:    0.200000, all in a.u.
 
----------------------------------------------------------------------
Geometry Convergence after Step   5       (Hartree/Angstrom,Angstrom)
----------------------------------------------------------------------
current energy                               -3.17523032 Hartree
energy change                      -0.00019886     0.00001200    F
constrained gradient max            0.00760675     0.00010000    F
constrained gradient rms            0.00214004     0.00006667    F
gradient max                        0.00760675
gradient rms                        0.00214004
cart. step max                      0.00919247     0.00100000    F
cart. step rms                      0.00416138     0.00066667    F
 
 
--------
Geometry
--------
Formula: H4Cl4O3Pa
Atoms
  Index Symbol   x (angstrom)   y (angstrom)   z (angstrom)
      1     Pa    -0.42412562    -0.72870090     0.53114779       adf.R=2.200
      2     Cl    -0.48320857     1.73097671    -0.59831011       adf.R=1.725
      3     Cl    -0.60330989    -2.91491083     2.12390593       adf.R=1.725
      4     Cl     2.06215675    -0.29178273     1.29397037       adf.R=1.725
      5     Cl    -2.61957147    -1.49259100    -0.70557414       adf.R=1.725
      6      O     0.48269216    -0.71565287    -1.90266746       adf.R=1.517
      7      O    -1.22739631     0.11129046     1.93871962       adf.R=1.517
      8      H     0.18951268    -1.38633411    -2.53041308       adf.R=1.350
      9      H     0.26990368     0.14670470    -2.28393373       adf.R=1.350
     10      H     0.76967104    -3.50514846     0.21483996       adf.R=1.350
     11      H     1.61422489    -2.76365043    -0.85758866       adf.R=1.350
     12      O     0.72886190    -2.83695024    -0.48255850       adf.R=1.517
 
Total System Charge            -1.00000
Bonding info available!
 
 *** GO1_GOStep6 ***

 SOLVATION
-------------------------------------------

  The Delley construction of COSMO surface surface is calculated

       Division Level for Surface Triangles (NDIV)                  3
       Final Division Level for Triangles (NFDIV)                   1
       Radius of the Solvent (RSOL)                           1.93000 angstr
  Dielectric Constant (EPSL)                                 78.39000

       COSMO equation is solved iteratively-               conjugate-gradient

       Maximun of Iterations for Charges (NCIX)                  1000
       Criterion for Charge convergence (CCNV)                1.0E-08

  COSMO charges included variationally in SCF

       COSMO included at every SCF cycle

  Geometry-dependent empirical factor                         0.00000

  C-Matrix calculated in cspmtx

  In cspmtx, C-Matrix calculated using fitted potential

-------------------------------------------



 -------------------------------------------
  COSMO surface
  Area             =          622.796
  Volume           =         1156.450
  Number of Points =         1448
 -------------------------------------------



 ======================
 RI Hartree-Fock Scheme
 ======================
  
 Fit Set Quality     : GOOD
 Threshold Quality   : GOOD
 Integration Quality : GOOD
 Fit Generation Method : AUTO
 Response Quality    : DEFAULT
 Is Range Separated  :  F
 
 RIHartreeFock Dependency: number of modified vectors:           8
 cosmo_calcen: 0.5 (esolb+esolc) (Hartrees) =   -0.112242

 Solvation energy (screening term,uncorrected) =    -70.432966 kcal/mol

 Solvation energy (dispersion and cavitation terms) =      1.164580 kcal/mol
 Solvation Energy Contributions (Hartrees)
          esola   esolb+esolc
     0.11224206   -0.22448413
 esol last cycle   -0.11224206
  
 Hartree-Fock exchange energy:   -603.404387592202     
 cosmo_calcen: 0.5 (esolb+esolc) (Hartrees) =   -0.112242

 Solvation energy (screening term,uncorrected) =    -70.432971 kcal/mol

 Solvation energy (dispersion and cavitation terms) =      1.164580 kcal/mol
 Solvation Energy Contributions (Hartrees)
          esola   esolb+esolc
     0.11224207   -0.22448414
 esol last cycle   -0.11224207

 Energy gradients wrt nuclear displacements
 ==========================================

     Atom      Cartesian (a.u./angstrom)
                 X         Y         Z
 ----------------------------------------
     1 Pa   -0.001541  0.000671  0.002827
     2 Cl   -0.000070  0.000178  0.000035
     3 Cl    0.000359  0.000421 -0.000354
     4 Cl   -0.002010 -0.000838 -0.001104
     5 Cl    0.001969  0.000387  0.000991
     6 O     0.001211 -0.000329 -0.001515
     7 O     0.000767 -0.000515 -0.000651
     8 H    -0.000562 -0.000141 -0.000027
     9 H    -0.000339  0.000731  0.000578
    10 H    -0.000412 -0.000020  0.000366
    11 H     0.000230  0.000241 -0.000169
    12 O     0.000397 -0.000785 -0.000978
 ----------------------------------------
 Mulliken charges used for AMS results%charges...

 dE(predicted):    -0.29165E-04, dE(actual):    -0.45153E-04, Trust radius:    0.200000, all in a.u.
 
----------------------------------------------------------------------
Geometry Convergence after Step   6       (Hartree/Angstrom,Angstrom)
----------------------------------------------------------------------
current energy                               -3.17527547 Hartree
energy change                      -0.00004515     0.00001200    F
constrained gradient max            0.00277092     0.00010000    F
constrained gradient rms            0.00092115     0.00006667    F
gradient max                        0.00277092
gradient rms                        0.00092115
cart. step max                      0.00889090     0.00100000    F
cart. step rms                      0.00441398     0.00066667    F
 
 
--------
Geometry
--------
Formula: H4Cl4O3Pa
Atoms
  Index Symbol   x (angstrom)   y (angstrom)   z (angstrom)
      1     Pa    -0.42269730    -0.72885085     0.53139263       adf.R=2.200
      2     Cl    -0.47534938     1.73114079    -0.59303650       adf.R=1.725
      3     Cl    -0.61072763    -2.91690983     2.11956929       adf.R=1.725
      4     Cl     2.06265224    -0.28757142     1.30116608       adf.R=1.725
      5     Cl    -2.62203380    -1.48498030    -0.70624893       adf.R=1.725
      6      O     0.47616963    -0.71845118    -1.90265556       adf.R=1.517
      7      O    -1.22894885     0.11125580     1.94106630       adf.R=1.517
      8      H     0.18902843    -1.39352443    -2.52859182       adf.R=1.350
      9      H     0.26356638     0.14027884    -2.29190858       adf.R=1.350
     10      H     0.77856194    -3.50520706     0.21294045       adf.R=1.350
     11      H     1.61628179    -2.75994949    -0.86096505       adf.R=1.350
     12      O     0.73290777    -2.83398058    -0.48119032       adf.R=1.517
 
Total System Charge            -1.00000
Bonding info available!
 
 *** GO1_GOStep7 ***

 SOLVATION
-------------------------------------------

  The Delley construction of COSMO surface surface is calculated

       Division Level for Surface Triangles (NDIV)                  3
       Final Division Level for Triangles (NFDIV)                   1
       Radius of the Solvent (RSOL)                           1.93000 angstr
  Dielectric Constant (EPSL)                                 78.39000

       COSMO equation is solved iteratively-               conjugate-gradient

       Maximun of Iterations for Charges (NCIX)                  1000
       Criterion for Charge convergence (CCNV)                1.0E-08

  COSMO charges included variationally in SCF

       COSMO included at every SCF cycle

  Geometry-dependent empirical factor                         0.00000

  C-Matrix calculated in cspmtx

  In cspmtx, C-Matrix calculated using fitted potential

-------------------------------------------



 -------------------------------------------
  COSMO surface
  Area             =          623.388
  Volume           =         1157.305
  Number of Points =         1447
 -------------------------------------------



 ======================
 RI Hartree-Fock Scheme
 ======================
  
 Fit Set Quality     : GOOD
 Threshold Quality   : GOOD
 Integration Quality : GOOD
 Fit Generation Method : AUTO
 Response Quality    : DEFAULT
 Is Range Separated  :  F
 
 RIHartreeFock Dependency: number of modified vectors:           8
 cosmo_calcen: 0.5 (esolb+esolc) (Hartrees) =   -0.112966

 Solvation energy (screening term,uncorrected) =    -70.887175 kcal/mol

 Solvation energy (dispersion and cavitation terms) =      1.165688 kcal/mol
 Solvation Energy Contributions (Hartrees)
          esola   esolb+esolc
     0.11296589   -0.22593178
 esol last cycle   -0.11296589
  
 Hartree-Fock exchange energy:   -603.401884434807     
 cosmo_calcen: 0.5 (esolb+esolc) (Hartrees) =   -0.112966

 Solvation energy (screening term,uncorrected) =    -70.887179 kcal/mol

 Solvation energy (dispersion and cavitation terms) =      1.165688 kcal/mol
 Solvation Energy Contributions (Hartrees)
          esola   esolb+esolc
     0.11296590   -0.22593180
 esol last cycle   -0.11296590

 Energy gradients wrt nuclear displacements
 ==========================================

     Atom      Cartesian (a.u./angstrom)
                 X         Y         Z
 ----------------------------------------
     1 Pa    0.000563 -0.001262 -0.000654
     2 Cl   -0.000092  0.000082  0.000144
     3 Cl    0.000183  0.000356 -0.000276
     4 Cl   -0.001466 -0.000526 -0.000822
     5 Cl    0.001561  0.000340  0.000785
     6 O     0.001270 -0.000363 -0.000898
     7 O    -0.001078  0.001363  0.002568
     8 H    -0.000637  0.000043 -0.000267
     9 H    -0.000451  0.000570  0.000217
    10 H    -0.000067 -0.000102  0.000300
    11 H     0.000359  0.000103 -0.000045
    12 O    -0.000144 -0.000603 -0.001052
 ----------------------------------------
 Mulliken charges used for AMS results%charges...

 dE(predicted):    -0.19549E-04, dE(actual):    -0.18095E-04, Trust radius:    0.200000, all in a.u.
 
----------------------------------------------------------------------
Geometry Convergence after Step   7       (Hartree/Angstrom,Angstrom)
----------------------------------------------------------------------
current energy                               -3.17529357 Hartree
energy change                      -0.00001809     0.00001200    F
constrained gradient max            0.00241759     0.00010000    F
constrained gradient rms            0.00080780     0.00006667    F
gradient max                        0.00241759
gradient rms                        0.00080780
cart. step max                      0.01050072     0.00100000    F
cart. step rms                      0.00556794     0.00066667    F
 
 
--------
Geometry
--------
Formula: H4Cl4O3Pa
Atoms
  Index Symbol   x (angstrom)   y (angstrom)   z (angstrom)
      1     Pa    -0.42155817    -0.72876032     0.53180700       adf.R=2.200
      2     Cl    -0.46526064     1.73178193    -0.58681931       adf.R=1.725
      3     Cl    -0.61809869    -2.91964078     2.11455132       adf.R=1.725
      4     Cl     2.06313942    -0.28232054     1.31100592       adf.R=1.725
      5     Cl    -2.62714108    -1.47535805    -0.70598104       adf.R=1.725
      6      O     0.46805548    -0.72178307    -1.90193030       adf.R=1.517
      7      O    -1.23078561     0.11028237     1.94196349       adf.R=1.517
      8      H     0.19069715    -1.40343996    -2.52508555       adf.R=1.350
      9      H     0.25612055     0.13189252    -2.30192130       adf.R=1.350
     10      H     0.78906266    -3.50500869     0.20992388       adf.R=1.350
     11      H     1.61767477    -2.75478724    -0.86646957       adf.R=1.350
     12      O     0.73750537    -2.82960787    -0.47950655       adf.R=1.517
 
Total System Charge            -1.00000
Bonding info available!
 
 *** GO1_GOStep8 ***

 SOLVATION
-------------------------------------------

  The Delley construction of COSMO surface surface is calculated

       Division Level for Surface Triangles (NDIV)                  3
       Final Division Level for Triangles (NFDIV)                   1
       Radius of the Solvent (RSOL)                           1.93000 angstr
  Dielectric Constant (EPSL)                                 78.39000

       COSMO equation is solved iteratively-               conjugate-gradient

       Maximun of Iterations for Charges (NCIX)                  1000
       Criterion for Charge convergence (CCNV)                1.0E-08

  COSMO charges included variationally in SCF

       COSMO included at every SCF cycle

  Geometry-dependent empirical factor                         0.00000

  C-Matrix calculated in cspmtx

  In cspmtx, C-Matrix calculated using fitted potential

-------------------------------------------



 -------------------------------------------
  COSMO surface
  Area             =          624.756
  Volume           =         1159.852
  Number of Points =         1449
 -------------------------------------------



 ======================
 RI Hartree-Fock Scheme
 ======================
  
 Fit Set Quality     : GOOD
 Threshold Quality   : GOOD
 Integration Quality : GOOD
 Fit Generation Method : AUTO
 Response Quality    : DEFAULT
 Is Range Separated  :  F
 
 RIHartreeFock Dependency: number of modified vectors:           8
 cosmo_calcen: 0.5 (esolb+esolc) (Hartrees) =   -0.113783

 Solvation energy (screening term,uncorrected) =    -71.399972 kcal/mol

 Solvation energy (dispersion and cavitation terms) =      1.168245 kcal/mol
 Solvation Energy Contributions (Hartrees)
          esola   esolb+esolc
     0.11378309   -0.22756617
 esol last cycle   -0.11378309
  
 Hartree-Fock exchange energy:   -603.400817023855     
 cosmo_calcen: 0.5 (esolb+esolc) (Hartrees) =   -0.113783

 Solvation energy (screening term,uncorrected) =    -71.399978 kcal/mol

 Solvation energy (dispersion and cavitation terms) =      1.168245 kcal/mol
 Solvation Energy Contributions (Hartrees)
          esola   esolb+esolc
     0.11378309   -0.22756619
 esol last cycle   -0.11378309

 Energy gradients wrt nuclear displacements
 ==========================================

     Atom      Cartesian (a.u./angstrom)
                 X         Y         Z
 ----------------------------------------
     1 Pa    0.001578 -0.002160 -0.002257
     2 Cl   -0.000058 -0.000038  0.000283
     3 Cl    0.000069  0.000295 -0.000210
     4 Cl   -0.000696 -0.000165 -0.000552
     5 Cl    0.000960  0.000191  0.000456
     6 O     0.001196 -0.000390 -0.000364
     7 O    -0.001932  0.002200  0.003916
     8 H    -0.000627  0.000257 -0.000343
     9 H    -0.000488  0.000270 -0.000059
    10 H     0.000235 -0.000082  0.000106
    11 H     0.000313 -0.000001  0.000081
    12 O    -0.000549 -0.000377 -0.001056
 ----------------------------------------
 Mulliken charges used for AMS results%charges...

 dE(predicted):    -0.17469E-04, dE(actual):    -0.31387E-04, Trust radius:    0.200000, all in a.u.
 
----------------------------------------------------------------------
Geometry Convergence after Step   8       (Hartree/Angstrom,Angstrom)
----------------------------------------------------------------------
current energy                               -3.17532496 Hartree
energy change                      -0.00003139     0.00001200    F
constrained gradient max            0.00376684     0.00010000    F
constrained gradient rms            0.00108479     0.00006667    F
gradient max                        0.00376684
gradient rms                        0.00108479
cart. step max                      0.01590358     0.00100000    F
cart. step rms                      0.00837959     0.00066667    F
 
 
--------
Geometry
--------
Formula: H4Cl4O3Pa
Atoms
  Index Symbol   x (angstrom)   y (angstrom)   z (angstrom)
      1     Pa    -0.42029234    -0.72842379     0.53163957       adf.R=2.200
      2     Cl    -0.44963152     1.73269344    -0.57900414       adf.R=1.725
      3     Cl    -0.62808903    -2.92398986     2.10600378       adf.R=1.725
      4     Cl     2.06343539    -0.27762672     1.32679928       adf.R=1.725
      5     Cl    -2.63659260    -1.46068692    -0.70417675       adf.R=1.725
      6      O     0.45431618    -0.72536435    -1.90150220       adf.R=1.517
      7      O    -1.23255792     0.10778434     1.94091414       adf.R=1.517
      8      H     0.19367016    -1.41740713    -2.52026546       adf.R=1.350
      9      H     0.24410787     0.12075285    -2.31716669       adf.R=1.350
     10      H     0.80496624    -3.50432559     0.20725157       adf.R=1.350
     11      H     1.62044513    -2.74731339    -0.87379762       adf.R=1.350
     12      O     0.74563366    -2.82284258    -0.47515750       adf.R=1.517
 
Total System Charge            -1.00000
Bonding info available!
 
 *** GO1_GOStep9 ***

 SOLVATION
-------------------------------------------

  The Delley construction of COSMO surface surface is calculated

       Division Level for Surface Triangles (NDIV)                  3
       Final Division Level for Triangles (NFDIV)                   1
       Radius of the Solvent (RSOL)                           1.93000 angstr
  Dielectric Constant (EPSL)                                 78.39000

       COSMO equation is solved iteratively-               conjugate-gradient

       Maximun of Iterations for Charges (NCIX)                  1000
       Criterion for Charge convergence (CCNV)                1.0E-08

  COSMO charges included variationally in SCF

       COSMO included at every SCF cycle

  Geometry-dependent empirical factor                         0.00000

  C-Matrix calculated in cspmtx

  In cspmtx, C-Matrix calculated using fitted potential

-------------------------------------------



 -------------------------------------------
  COSMO surface
  Area             =          624.808
  Volume           =         1159.203
  Number of Points =         1446
 -------------------------------------------



 ======================
 RI Hartree-Fock Scheme
 ======================
  
 Fit Set Quality     : GOOD
 Threshold Quality   : GOOD
 Integration Quality : GOOD
 Fit Generation Method : AUTO
 Response Quality    : DEFAULT
 Is Range Separated  :  F
 
 RIHartreeFock Dependency: number of modified vectors:           8
 cosmo_calcen: 0.5 (esolb+esolc) (Hartrees) =   -0.114868

 Solvation energy (screening term,uncorrected) =    -72.080729 kcal/mol

 Solvation energy (dispersion and cavitation terms) =      1.168343 kcal/mol
 Solvation Energy Contributions (Hartrees)
          esola   esolb+esolc
     0.11486794   -0.22973588
 esol last cycle   -0.11486794
  
 Hartree-Fock exchange energy:   -603.401478534796     
 cosmo_calcen: 0.5 (esolb+esolc) (Hartrees) =   -0.114868

 Solvation energy (screening term,uncorrected) =    -72.080734 kcal/mol

 Solvation energy (dispersion and cavitation terms) =      1.168343 kcal/mol
 Solvation Energy Contributions (Hartrees)
          esola   esolb+esolc
     0.11486795   -0.22973590
 esol last cycle   -0.11486795

 Energy gradients wrt nuclear displacements
 ==========================================

     Atom      Cartesian (a.u./angstrom)
                 X         Y         Z
 ----------------------------------------
     1 Pa    0.001617 -0.001898 -0.002169
     2 Cl    0.000005 -0.000409  0.000441
     3 Cl    0.000036  0.000283 -0.000303
     4 Cl    0.000283  0.000207 -0.000182
     5 Cl    0.000145  0.000031  0.000033
     6 O     0.000808 -0.000031  0.000189
     7 O    -0.001706  0.001852  0.003287
     8 H    -0.000482  0.000418 -0.000231
     9 H    -0.000463 -0.000125 -0.000413
    10 H     0.000530 -0.000118 -0.000219
    11 H     0.000159  0.000016  0.000169
    12 O    -0.000934 -0.000224 -0.000604
 ----------------------------------------
 Mulliken charges used for AMS results%charges...

 dE(predicted):    -0.22544E-04, dE(actual):    -0.26005E-04, Trust radius:    0.200000, all in a.u.
 
----------------------------------------------------------------------
Geometry Convergence after Step   9       (Hartree/Angstrom,Angstrom)
----------------------------------------------------------------------
current energy                               -3.17535096 Hartree
energy change                      -0.00002601     0.00001200    F
constrained gradient max            0.00314222     0.00010000    F
constrained gradient rms            0.00093825     0.00006667    F
gradient max                        0.00314222
gradient rms                        0.00093825
cart. step max                      0.00649551     0.00100000    F
cart. step rms                      0.00299171     0.00066667    F
 
 
--------
Geometry
--------
Formula: H4Cl4O3Pa
Atoms
  Index Symbol   x (angstrom)   y (angstrom)   z (angstrom)
      1     Pa    -0.42052094    -0.72811907     0.53089770       adf.R=2.200
      2     Cl    -0.44453766     1.73343220    -0.57773925       adf.R=1.725
      3     Cl    -0.63078825    -2.92544806     2.10320505       adf.R=1.725
      4     Cl     2.06296646    -0.27902039     1.33329479       adf.R=1.725
      5     Cl    -2.64200922    -1.45605389    -0.70168677       adf.R=1.725
      6      O     0.44882483    -0.72636659    -1.90173949       adf.R=1.517
      7      O    -1.23245791     0.10642156     1.93887638       adf.R=1.517
      8      H     0.19498465    -1.42188434    -2.51937008       adf.R=1.350
      9      H     0.24100134     0.11793498    -2.32179693       adf.R=1.350
     10      H     0.81035054    -3.50297315     0.20731123       adf.R=1.350
     11      H     1.62207383    -2.74485719    -0.87661555       adf.R=1.350
     12      O     0.74952354    -2.81981574    -0.47309909       adf.R=1.517
 
Total System Charge            -1.00000
Bonding info available!
 
 *** GO1_GOStep10 ***

 SOLVATION
-------------------------------------------

  The Delley construction of COSMO surface surface is calculated

       Division Level for Surface Triangles (NDIV)                  3
       Final Division Level for Triangles (NFDIV)                   1
       Radius of the Solvent (RSOL)                           1.93000 angstr
  Dielectric Constant (EPSL)                                 78.39000

       COSMO equation is solved iteratively-               conjugate-gradient

       Maximun of Iterations for Charges (NCIX)                  1000
       Criterion for Charge convergence (CCNV)                1.0E-08

  COSMO charges included variationally in SCF

       COSMO included at every SCF cycle

  Geometry-dependent empirical factor                         0.00000

  C-Matrix calculated in cspmtx

  In cspmtx, C-Matrix calculated using fitted potential

-------------------------------------------



 -------------------------------------------
  COSMO surface
  Area             =          625.106
  Volume           =         1159.700
  Number of Points =         1446
 -------------------------------------------



 ======================
 RI Hartree-Fock Scheme
 ======================
  
 Fit Set Quality     : GOOD
 Threshold Quality   : GOOD
 Integration Quality : GOOD
 Fit Generation Method : AUTO
 Response Quality    : DEFAULT
 Is Range Separated  :  F
 
 RIHartreeFock Dependency: number of modified vectors:           8
 cosmo_calcen: 0.5 (esolb+esolc) (Hartrees) =   -0.115143

 Solvation energy (screening term,uncorrected) =    -72.253298 kcal/mol

 Solvation energy (dispersion and cavitation terms) =      1.168901 kcal/mol
 Solvation Energy Contributions (Hartrees)
          esola   esolb+esolc
     0.11514295   -0.23028590
 esol last cycle   -0.11514295
  
 Hartree-Fock exchange energy:   -603.403037804096     
 cosmo_calcen: 0.5 (esolb+esolc) (Hartrees) =   -0.115143

 Solvation energy (screening term,uncorrected) =    -72.253305 kcal/mol

 Solvation energy (dispersion and cavitation terms) =      1.168901 kcal/mol
 Solvation Energy Contributions (Hartrees)
          esola   esolb+esolc
     0.11514296   -0.23028592
 esol last cycle   -0.11514296

 Energy gradients wrt nuclear displacements
 ==========================================

     Atom      Cartesian (a.u./angstrom)
                 X         Y         Z
 ----------------------------------------
     1 Pa    0.000591 -0.000721 -0.000422
     2 Cl    0.000009 -0.000516  0.000445
     3 Cl    0.000073  0.000298 -0.000327
     4 Cl    0.000544  0.000198 -0.000069
     5 Cl   -0.000146 -0.000012 -0.000066
     6 O     0.000525  0.000271  0.000054
     7 O    -0.000624  0.000652  0.001309
     8 H    -0.000406  0.000284 -0.000104
     9 H    -0.000316 -0.000214 -0.000258
    10 H     0.000428 -0.000052 -0.000319
    11 H     0.000050  0.000080  0.000057
    12 O    -0.000728 -0.000267 -0.000301
 ----------------------------------------
 Mulliken charges used for AMS results%charges...

 dE(predicted):    -0.83927E-05, dE(actual):    -0.65183E-05, Trust radius:    0.200000, all in a.u.
 
----------------------------------------------------------------------
Geometry Convergence after Step  10       (Hartree/Angstrom,Angstrom)
----------------------------------------------------------------------
current energy                               -3.17535748 Hartree
energy change                      -0.00000652     0.00001200    T
constrained gradient max            0.00116258     0.00010000    F
constrained gradient rms            0.00041121     0.00006667    F
gradient max                        0.00116258
gradient rms                        0.00041121
cart. step max                      0.00495033     0.00100000    F
cart. step rms                      0.00243555     0.00066667    F
 
 
--------
Geometry
--------
Formula: H4Cl4O3Pa
Atoms
  Index Symbol   x (angstrom)   y (angstrom)   z (angstrom)
      1     Pa    -0.42132386    -0.72771776     0.52954739       adf.R=2.200
      2     Cl    -0.44083392     1.73459088    -0.57774772       adf.R=1.725
      3     Cl    -0.63214414    -2.92638234     2.10099676       adf.R=1.725
      4     Cl     2.06166702    -0.28336392     1.33824512       adf.R=1.725
      5     Cl    -2.64692349    -1.45374641    -0.69847896       adf.R=1.725
      6      O     0.44406096    -0.72710124    -1.90253680       adf.R=1.517
      7      O    -1.23187386     0.10564332     1.93676684       adf.R=1.517
      8      H     0.19557573    -1.42453471    -2.52007316       adf.R=1.350
      9      H     0.23941577     0.11695222    -2.32448174       adf.R=1.350
     10      H     0.81370752    -3.50085663     0.20845285       adf.R=1.350
     11      H     1.62456087    -2.74330478    -0.87799096       adf.R=1.350
     12      O     0.75352262    -2.81692832    -0.47116164       adf.R=1.517
 
Total System Charge            -1.00000
Bonding info available!
 
 *** GO1_GOStep11 ***

 SOLVATION
-------------------------------------------

  The Delley construction of COSMO surface surface is calculated

       Division Level for Surface Triangles (NDIV)                  3
       Final Division Level for Triangles (NFDIV)                   1
       Radius of the Solvent (RSOL)                           1.93000 angstr
  Dielectric Constant (EPSL)                                 78.39000

       COSMO equation is solved iteratively-               conjugate-gradient

       Maximun of Iterations for Charges (NCIX)                  1000
       Criterion for Charge convergence (CCNV)                1.0E-08

  COSMO charges included variationally in SCF

       COSMO included at every SCF cycle

  Geometry-dependent empirical factor                         0.00000

  C-Matrix calculated in cspmtx

  In cspmtx, C-Matrix calculated using fitted potential

-------------------------------------------



 -------------------------------------------
  COSMO surface
  Area             =          624.348
  Volume           =         1157.808
  Number of Points =         1446
 -------------------------------------------



 ======================
 RI Hartree-Fock Scheme
 ======================
  
 Fit Set Quality     : GOOD
 Threshold Quality   : GOOD
 Integration Quality : GOOD
 Fit Generation Method : AUTO
 Response Quality    : DEFAULT
 Is Range Separated  :  F
 
 RIHartreeFock Dependency: number of modified vectors:           8
 cosmo_calcen: 0.5 (esolb+esolc) (Hartrees) =   -0.115276

 Solvation energy (screening term,uncorrected) =    -72.337017 kcal/mol

 Solvation energy (dispersion and cavitation terms) =      1.167483 kcal/mol
 Solvation Energy Contributions (Hartrees)
          esola   esolb+esolc
     0.11527636   -0.23055272
 esol last cycle   -0.11527636
  
 Hartree-Fock exchange energy:   -603.404558664610     
 cosmo_calcen: 0.5 (esolb+esolc) (Hartrees) =   -0.115276

 Solvation energy (screening term,uncorrected) =    -72.337024 kcal/mol

 Solvation energy (dispersion and cavitation terms) =      1.167483 kcal/mol
 Solvation Energy Contributions (Hartrees)
          esola   esolb+esolc
     0.11527637   -0.23055275
 esol last cycle   -0.11527637

 Energy gradients wrt nuclear displacements
 ==========================================

     Atom      Cartesian (a.u./angstrom)
                 X         Y         Z
 ----------------------------------------
     1 Pa   -0.000485  0.000461  0.001230
     2 Cl   -0.000008 -0.000522  0.000422
     3 Cl    0.000142  0.000301 -0.000320
     4 Cl    0.000552  0.000037 -0.000036
     5 Cl   -0.000275 -0.000025 -0.000071
     6 O     0.000258  0.000309 -0.000252
     7 O     0.000458 -0.000482 -0.000548
     8 H    -0.000304  0.000087  0.000083
     9 H    -0.000176 -0.000049 -0.000047
    10 H     0.000198 -0.000041 -0.000296
    11 H    -0.000061  0.000181 -0.000113
    12 O    -0.000298 -0.000257 -0.000051
 ----------------------------------------
 Mulliken charges used for AMS results%charges...

 dE(predicted):    -0.54325E-05, dE(actual):     0.57863E-05, Trust radius:    0.020000, all in a.u.
 
----------------------------------------------------------------------
Geometry Convergence after Step  11       (Hartree/Angstrom,Angstrom)
----------------------------------------------------------------------
current energy                               -3.17535169 Hartree
energy change                       0.00000579     0.00001200    T
constrained gradient max            0.00117493     0.00010000    F
constrained gradient rms            0.00033852     0.00006667    F
gradient max                        0.00117493
gradient rms                        0.00033852
cart. step max                      0.00241151     0.00100000    F
cart. step rms                      0.00099463     0.00066667    F
 
 
--------
Geometry
--------
Formula: H4Cl4O3Pa
Atoms
  Index Symbol   x (angstrom)   y (angstrom)   z (angstrom)
      1     Pa    -0.42175681    -0.72754906     0.52865774       adf.R=2.200
      2     Cl    -0.43976155     1.73534224    -0.57855417       adf.R=1.725
      3     Cl    -0.63190554    -2.92681011     2.10028999       adf.R=1.725
      4     Cl     2.06067714    -0.28577543     1.33987948       adf.R=1.725
      5     Cl    -2.64871442    -1.45398990    -0.69656295       adf.R=1.725
      6      O     0.44231393    -0.72709893    -1.90313890       adf.R=1.517
      7      O    -1.23152548     0.10567738     1.93611714       adf.R=1.517
      8      H     0.19588429    -1.42448690    -2.52150210       adf.R=1.350
      9      H     0.23926858     0.11750191    -2.32476764       adf.R=1.350
     10      H     0.81383127    -3.49973846     0.20947318       adf.R=1.350
     11      H     1.62597340    -2.74384999    -0.87789983       adf.R=1.350
     12      O     0.75512642    -2.81597245    -0.47045395       adf.R=1.517
 
Total System Charge            -1.00000
Bonding info available!
 
 *** GO1_GOStep12 ***

 SOLVATION
-------------------------------------------

  The Delley construction of COSMO surface surface is calculated

       Division Level for Surface Triangles (NDIV)                  3
       Final Division Level for Triangles (NFDIV)                   1
       Radius of the Solvent (RSOL)                           1.93000 angstr
  Dielectric Constant (EPSL)                                 78.39000

       COSMO equation is solved iteratively-               conjugate-gradient

       Maximun of Iterations for Charges (NCIX)                  1000
       Criterion for Charge convergence (CCNV)                1.0E-08

  COSMO charges included variationally in SCF

       COSMO included at every SCF cycle

  Geometry-dependent empirical factor                         0.00000

  C-Matrix calculated in cspmtx

  In cspmtx, C-Matrix calculated using fitted potential

-------------------------------------------



 -------------------------------------------
  COSMO surface
  Area             =          624.379
  Volume           =         1157.810
  Number of Points =         1446
 -------------------------------------------



 ======================
 RI Hartree-Fock Scheme
 ======================
  
 Fit Set Quality     : GOOD
 Threshold Quality   : GOOD
 Integration Quality : GOOD
 Fit Generation Method : AUTO
 Response Quality    : DEFAULT
 Is Range Separated  :  F
 
 RIHartreeFock Dependency: number of modified vectors:           8
 cosmo_calcen: 0.5 (esolb+esolc) (Hartrees) =   -0.115317

 Solvation energy (screening term,uncorrected) =    -72.362372 kcal/mol

 Solvation energy (dispersion and cavitation terms) =      1.167541 kcal/mol
 Solvation Energy Contributions (Hartrees)
          esola   esolb+esolc
     0.11531677   -0.23063353
 esol last cycle   -0.11531677
  
 Hartree-Fock exchange energy:   -603.404735193396     
 cosmo_calcen: 0.5 (esolb+esolc) (Hartrees) =   -0.115317

 Solvation energy (screening term,uncorrected) =    -72.362379 kcal/mol

 Solvation energy (dispersion and cavitation terms) =      1.167541 kcal/mol
 Solvation Energy Contributions (Hartrees)
          esola   esolb+esolc
     0.11531678   -0.23063356
 esol last cycle   -0.11531678

 Energy gradients wrt nuclear displacements
 ==========================================

     Atom      Cartesian (a.u./angstrom)
                 X         Y         Z
 ----------------------------------------
     1 Pa   -0.000677  0.000640  0.001404
     2 Cl   -0.000011 -0.000429  0.000362
     3 Cl    0.000184  0.000259 -0.000296
     4 Cl    0.000481 -0.000068 -0.000038
     5 Cl   -0.000279 -0.000033 -0.000035
     6 O     0.000163  0.000274 -0.000412
     7 O     0.000610 -0.000628 -0.000763
     8 H    -0.000288  0.000031  0.000101
     9 H    -0.000098  0.000041  0.000098
    10 H     0.000075 -0.000050 -0.000249
    11 H    -0.000084  0.000201 -0.000195
    12 O    -0.000076 -0.000238  0.000024
 ----------------------------------------
 Mulliken charges used for AMS results%charges...
 
----------------------------------------------------------------------
Geometry Convergence after Step  12       (Hartree/Angstrom,Angstrom)
----------------------------------------------------------------------
current energy                               -3.17535133 Hartree
energy change                       0.00000036     0.00001200    T
constrained gradient max            0.00134864     0.00010000    F
constrained gradient rms            0.00038275     0.00006667    F
gradient max                        0.00134864
gradient rms                        0.00038275
cart. step max                      0.00335265     0.00100000    F
cart. step rms                      0.00163820     0.00066667    F
 
 
--------
Geometry
--------
Formula: H4Cl4O3Pa
Atoms
  Index Symbol   x (angstrom)   y (angstrom)   z (angstrom)
      1     Pa    -0.42205038    -0.72726661     0.52726308       adf.R=2.200
      2     Cl    -0.43733909     1.73689441    -0.57929479       adf.R=1.725
      3     Cl    -0.63178951    -2.92792739     2.09882372       adf.R=1.725
      4     Cl     2.05889968    -0.28815753     1.34323213       adf.R=1.725
      5     Cl    -2.65124911    -1.45388267    -0.69335546       adf.R=1.725
      6      O     0.43910343    -0.72722102    -1.90394828       adf.R=1.517
      7      O    -1.23116217     0.10576554     1.93557553       adf.R=1.517
      8      H     0.19752241    -1.42498358    -2.52370375       adf.R=1.350
      9      H     0.23772426     0.11762238    -2.32599341       adf.R=1.350
     10      H     0.81381874    -3.49790653     0.21067613       adf.R=1.350
     11      H     1.62827474    -2.74539456    -0.87807517       adf.R=1.350
     12      O     0.75765822    -2.81429215    -0.46966174       adf.R=1.517
 
Total System Charge            -1.00000
Bonding info available!
 
 *** GO1_GOStep13 ***

 SOLVATION
-------------------------------------------

  The Delley construction of COSMO surface surface is calculated

       Division Level for Surface Triangles (NDIV)                  3
       Final Division Level for Triangles (NFDIV)                   1
       Radius of the Solvent (RSOL)                           1.93000 angstr
  Dielectric Constant (EPSL)                                 78.39000

       COSMO equation is solved iteratively-               conjugate-gradient

       Maximun of Iterations for Charges (NCIX)                  1000
       Criterion for Charge convergence (CCNV)                1.0E-08

  COSMO charges included variationally in SCF

       COSMO included at every SCF cycle

  Geometry-dependent empirical factor                         0.00000

  C-Matrix calculated in cspmtx

  In cspmtx, C-Matrix calculated using fitted potential

-------------------------------------------



 -------------------------------------------
  COSMO surface
  Area             =          624.445
  Volume           =         1157.836
  Number of Points =         1445
 -------------------------------------------



 ======================
 RI Hartree-Fock Scheme
 ======================
  
 Fit Set Quality     : GOOD
 Threshold Quality   : GOOD
 Integration Quality : GOOD
 Fit Generation Method : AUTO
 Response Quality    : DEFAULT
 Is Range Separated  :  F
 
 RIHartreeFock Dependency: number of modified vectors:           8
 cosmo_calcen: 0.5 (esolb+esolc) (Hartrees) =   -0.115486

 Solvation energy (screening term,uncorrected) =    -72.468724 kcal/mol

 Solvation energy (dispersion and cavitation terms) =      1.167664 kcal/mol
 Solvation Energy Contributions (Hartrees)
          esola   esolb+esolc
     0.11548625   -0.23097250
 esol last cycle   -0.11548625
  
 Hartree-Fock exchange energy:   -603.404481119833     
 cosmo_calcen: 0.5 (esolb+esolc) (Hartrees) =   -0.115486

 Solvation energy (screening term,uncorrected) =    -72.468730 kcal/mol

 Solvation energy (dispersion and cavitation terms) =      1.167664 kcal/mol
 Solvation Energy Contributions (Hartrees)
          esola   esolb+esolc
     0.11548626   -0.23097252
 esol last cycle   -0.11548626

 Energy gradients wrt nuclear displacements
 ==========================================

     Atom      Cartesian (a.u./angstrom)
                 X         Y         Z
 ----------------------------------------
     1 Pa   -0.000547  0.000480  0.000968
     2 Cl   -0.000006 -0.000202  0.000265
     3 Cl    0.000217  0.000134 -0.000212
     4 Cl    0.000385 -0.000178 -0.000024
     5 Cl   -0.000283 -0.000052  0.000018
     6 O     0.000068  0.000043 -0.000497
     7 O     0.000452 -0.000445 -0.000408
     8 H    -0.000216  0.000029  0.000151
     9 H    -0.000082  0.000212  0.000146
    10 H    -0.000051 -0.000051 -0.000196
    11 H    -0.000110  0.000170 -0.000280
    12 O     0.000174 -0.000140  0.000069
 ----------------------------------------
 Mulliken charges used for AMS results%charges...

 dE(predicted):    -0.23676E-05, dE(actual):     0.16905E-05, Trust radius:    0.020000, all in a.u.
 
----------------------------------------------------------------------
Geometry Convergence after Step  13       (Hartree/Angstrom,Angstrom)
----------------------------------------------------------------------
current energy                               -3.17534964 Hartree
energy change                       0.00000169     0.00001200    T
constrained gradient max            0.00091192     0.00010000    F
constrained gradient rms            0.00027849     0.00006667    F
gradient max                        0.00091192
gradient rms                        0.00027849
cart. step max                      0.00249114     0.00100000    F
cart. step rms                      0.00111953     0.00066667    F
 
 
--------
Geometry
--------
Formula: H4Cl4O3Pa
Atoms
  Index Symbol   x (angstrom)   y (angstrom)   z (angstrom)
      1     Pa    -0.42180886    -0.72723643     0.52637072       adf.R=2.200
      2     Cl    -0.43602629     1.73790366    -0.57997933       adf.R=1.725
      3     Cl    -0.63148406    -2.92904945     2.09797345       adf.R=1.725
      4     Cl     2.05762408    -0.28801292     1.34518794       adf.R=1.725
      5     Cl    -2.65216844    -1.45395200    -0.69114297       adf.R=1.725
      6      O     0.43708419    -0.72689092    -1.90435937       adf.R=1.517
      7      O    -1.23074909     0.10572597     1.93546015       adf.R=1.517
      8      H     0.19946135    -1.42464027    -2.52566739       adf.R=1.350
      9      H     0.23625092     0.11799937    -2.32654836       adf.R=1.350
     10      H     0.81268605    -3.49699807     0.21149441       adf.R=1.350
     11      H     1.62969451    -2.74788570    -0.87782671       adf.R=1.350
     12      O     0.75884683    -2.81371292    -0.46942454       adf.R=1.517
 
Total System Charge            -1.00000
Bonding info available!
 
 *** GO1_GOStep14 ***

 SOLVATION
-------------------------------------------

  The Delley construction of COSMO surface surface is calculated

       Division Level for Surface Triangles (NDIV)                  3
       Final Division Level for Triangles (NFDIV)                   1
       Radius of the Solvent (RSOL)                           1.93000 angstr
  Dielectric Constant (EPSL)                                 78.39000

       COSMO equation is solved iteratively-               conjugate-gradient

       Maximun of Iterations for Charges (NCIX)                  1000
       Criterion for Charge convergence (CCNV)                1.0E-08

  COSMO charges included variationally in SCF

       COSMO included at every SCF cycle

  Geometry-dependent empirical factor                         0.00000

  C-Matrix calculated in cspmtx

  In cspmtx, C-Matrix calculated using fitted potential

-------------------------------------------



 -------------------------------------------
  COSMO surface
  Area             =          625.143
  Volume           =         1158.886
  Number of Points =         1446
 -------------------------------------------



 ======================
 RI Hartree-Fock Scheme
 ======================
  
 Fit Set Quality     : GOOD
 Threshold Quality   : GOOD
 Integration Quality : GOOD
 Fit Generation Method : AUTO
 Response Quality    : DEFAULT
 Is Range Separated  :  F
 
 RIHartreeFock Dependency: number of modified vectors:           8
 cosmo_calcen: 0.5 (esolb+esolc) (Hartrees) =   -0.115640

 Solvation energy (screening term,uncorrected) =    -72.565490 kcal/mol

 Solvation energy (dispersion and cavitation terms) =      1.168969 kcal/mol
 Solvation Energy Contributions (Hartrees)
          esola   esolb+esolc
     0.11564046   -0.23128091
 esol last cycle   -0.11564046
  
 Hartree-Fock exchange energy:   -603.404065433424     
 cosmo_calcen: 0.5 (esolb+esolc) (Hartrees) =   -0.115640

 Solvation energy (screening term,uncorrected) =    -72.565496 kcal/mol

 Solvation energy (dispersion and cavitation terms) =      1.168969 kcal/mol
 Solvation Energy Contributions (Hartrees)
          esola   esolb+esolc
     0.11564047   -0.23128093
 esol last cycle   -0.11564047

 Energy gradients wrt nuclear displacements
 ==========================================

     Atom      Cartesian (a.u./angstrom)
                 X         Y         Z
 ----------------------------------------
     1 Pa   -0.000208  0.000160  0.000340
     2 Cl    0.000011 -0.000047  0.000179
     3 Cl    0.000214  0.000002 -0.000129
     4 Cl    0.000270 -0.000199 -0.000025
     5 Cl   -0.000231 -0.000052  0.000071
     6 O     0.000022  0.000023 -0.000417
     7 O     0.000156 -0.000125  0.000165
     8 H    -0.000200  0.000052  0.000074
     9 H    -0.000086  0.000196  0.000156
    10 H    -0.000072 -0.000050 -0.000170
    11 H    -0.000107  0.000091 -0.000290
    12 O     0.000231 -0.000052  0.000046
 ----------------------------------------
 Mulliken charges used for AMS results%charges...

 dE(predicted):    -0.12242E-05, dE(actual):    -0.72506E-05, Trust radius:    0.020000, all in a.u.
 
----------------------------------------------------------------------
Geometry Convergence after Step  14       (Hartree/Angstrom,Angstrom)
----------------------------------------------------------------------
current energy                               -3.17535689 Hartree
energy change                      -0.00000725     0.00001200    T
constrained gradient max            0.00041715     0.00010000    F
constrained gradient rms            0.00013674     0.00006667    F
gradient max                        0.00041715
gradient rms                        0.00013674
cart. step max                      0.00205865     0.00100000    F
cart. step rms                      0.00081214     0.00066667    F
 
 
--------
Geometry
--------
Formula: H4Cl4O3Pa
Atoms
  Index Symbol   x (angstrom)   y (angstrom)   z (angstrom)
      1     Pa    -0.42127110    -0.72735516     0.52599395       adf.R=2.200
      2     Cl    -0.43549723     1.73847717    -0.57997471       adf.R=1.725
      3     Cl    -0.63147133    -2.92999825     2.09748410       adf.R=1.725
      4     Cl     2.05697396    -0.28622911     1.34611386       adf.R=1.725
      5     Cl    -2.65219893    -1.45347943    -0.68996106       adf.R=1.725
      6      O     0.43589618    -0.72662363    -1.90431560       adf.R=1.517
      7      O    -1.23034152     0.10543812     1.93543702       adf.R=1.517
      8      H     0.20151683    -1.42457840    -2.52664035       adf.R=1.350
      9      H     0.23485188     0.11794270    -2.32702532       adf.R=1.350
     10      H     0.81147276    -3.49675950     0.21164766       adf.R=1.350
     11      H     1.63033525    -2.74994436    -0.87761891       adf.R=1.350
     12      O     0.75914446    -2.81363986    -0.46960263       adf.R=1.517
 
Total System Charge            -1.00000
Bonding info available!
 
 *** GO1_GOStep15 ***

 SOLVATION
-------------------------------------------

  The Delley construction of COSMO surface surface is calculated

       Division Level for Surface Triangles (NDIV)                  3
       Final Division Level for Triangles (NFDIV)                   1
       Radius of the Solvent (RSOL)                           1.93000 angstr
  Dielectric Constant (EPSL)                                 78.39000

       COSMO equation is solved iteratively-               conjugate-gradient

       Maximun of Iterations for Charges (NCIX)                  1000
       Criterion for Charge convergence (CCNV)                1.0E-08

  COSMO charges included variationally in SCF

       COSMO included at every SCF cycle

  Geometry-dependent empirical factor                         0.00000

  C-Matrix calculated in cspmtx

  In cspmtx, C-Matrix calculated using fitted potential

-------------------------------------------



 -------------------------------------------
  COSMO surface
  Area             =          624.595
  Volume           =         1158.038
  Number of Points =         1444
 -------------------------------------------



 ======================
 RI Hartree-Fock Scheme
 ======================
  
 Fit Set Quality     : GOOD
 Threshold Quality   : GOOD
 Integration Quality : GOOD
 Fit Generation Method : AUTO
 Response Quality    : DEFAULT
 Is Range Separated  :  F
 
 RIHartreeFock Dependency: number of modified vectors:           8
 cosmo_calcen: 0.5 (esolb+esolc) (Hartrees) =   -0.115749

 Solvation energy (screening term,uncorrected) =    -72.633875 kcal/mol

 Solvation energy (dispersion and cavitation terms) =      1.167944 kcal/mol
 Solvation Energy Contributions (Hartrees)
          esola   esolb+esolc
     0.11574944   -0.23149887
 esol last cycle   -0.11574944
  
 Hartree-Fock exchange energy:   -603.403932591028     
 cosmo_calcen: 0.5 (esolb+esolc) (Hartrees) =   -0.115749

 Solvation energy (screening term,uncorrected) =    -72.633882 kcal/mol

 Solvation energy (dispersion and cavitation terms) =      1.167944 kcal/mol
 Solvation Energy Contributions (Hartrees)
          esola   esolb+esolc
     0.11574945   -0.23149889
 esol last cycle   -0.11574945

 Energy gradients wrt nuclear displacements
 ==========================================

     Atom      Cartesian (a.u./angstrom)
                 X         Y         Z
 ----------------------------------------
     1 Pa    0.000006 -0.000100  0.000001
     2 Cl    0.000028  0.000070  0.000142
     3 Cl    0.000184 -0.000081 -0.000073
     4 Cl    0.000190 -0.000156 -0.000024
     5 Cl   -0.000145 -0.000029  0.000119
     6 O    -0.000002  0.000003 -0.000256
     7 O     0.000010  0.000040  0.000432
     8 H    -0.000196  0.000103 -0.000020
     9 H    -0.000109  0.000141  0.000117
    10 H    -0.000032 -0.000041 -0.000172
    11 H    -0.000094  0.000013 -0.000254
    12 O     0.000161  0.000036 -0.000011
 ----------------------------------------
[...]
     8     H       0.001976   0.007129   0.007194
     9     H       0.003100  -0.013787   0.006736
    10     H      -0.013706   0.622565  -0.612123
    11     H      -0.433219  -0.050054   0.210556
    12     O       0.027564  -0.035342   0.025510
 
 Mode:    34      Frequency (cm-1):     3768.2439     Intensity (km/mol):      126.4616
 Index  Atom      ---- Displacements (x/y/z) ----
     1    Pa      -0.000014   0.000015   0.000067
     2    Cl      -0.000004  -0.000147   0.000094
     3    Cl       0.000004   0.000030  -0.000022
     4    Cl      -0.000042  -0.000011  -0.000027
     5    Cl       0.000073   0.000016  -0.000013
     6     O       0.017348  -0.018883   0.043316
     7     O       0.000063  -0.000116  -0.000095
     8     H      -0.109490  -0.427364  -0.339921
     9     H      -0.164450   0.727543  -0.361343
    10     H      -0.000409   0.011634  -0.011166
    11     H      -0.008713  -0.002026   0.004471
    12     O       0.000551  -0.000493   0.000350
 
 Mode:    35      Frequency (cm-1):     3857.8061     Intensity (km/mol):      268.9189
 Index  Atom      ---- Displacements (x/y/z) ----
     1    Pa      -0.000004   0.000013   0.000000
     2    Cl      -0.000004  -0.000017   0.000005
     3    Cl       0.000034  -0.000072   0.000021
     4    Cl      -0.000030  -0.000022  -0.000018
     5    Cl       0.000016   0.000003   0.000006
     6     O       0.000064   0.001038   0.000322
     7     O       0.000020  -0.000071  -0.000031
     8     H      -0.002635  -0.009985  -0.009283
     9     H       0.001856  -0.006677   0.004021
    10     H      -0.033980   0.340383  -0.329009
    11     H       0.799082   0.067038  -0.355827
    12     O      -0.048226  -0.025535   0.043156
 
 Mode:    36      Frequency (cm-1):     3865.2272     Intensity (km/mol):      268.9972
 Index  Atom      ---- Displacements (x/y/z) ----
     1    Pa       0.000002   0.000004  -0.000008
     2    Cl       0.000008  -0.000054   0.000057
     3    Cl      -0.000001  -0.000013   0.000011
     4    Cl       0.000012   0.000000   0.000007
     5    Cl      -0.000027  -0.000008   0.000002
     6     O      -0.003583  -0.068373  -0.017014
     7     O      -0.000036  -0.000009   0.000048
     8     H       0.176804   0.617718   0.528666
     9     H      -0.119566   0.469245  -0.260687
    10     H      -0.000304   0.005516  -0.005581
    11     H       0.012683   0.001600  -0.005391
    12     O      -0.000785  -0.000450   0.000721

 Vibrational polarizability tensor (a.u.):
                  X                   Y                   Z
 X            2921.62020            50.12727           381.19354
 Y              50.12727          2837.40110           -69.30413
 Z             381.19354           -69.30413          3217.21408

 Isotropic =      2992.1    atomic units

PES point character: Geometry corresponds to a local minimum on the PES.




 ============================
 Statistical Thermal Analysis  ***  ideal gas assumed  ***
 ============================
  
 Pressure:                  1.000000 atm.
 Temperature:             298.150000 K



 Moments of Inertia [amu*bohr^2] and principal axis
 ==================================================

        2616.3748       2912.5033       3773.0295
 ------------------------------------------------
           0.0652          0.8973         -0.4366
           0.8760          0.1581          0.4557
          -0.4780          0.4122          0.7757


 The rotational contribution to the molecular entropy includes
 a term, dependent on the symmetry number sigma. The results 
 reported below were computed using sigma = 1, determined from
 the point group symmetry of the input geometry (NOSYM). 
 If this is not the correct symmetry, try symmetrizing the molecule before
 running the calculation (note: linear molecules should be aligned along one
 of the Cartesian axes).
 Contributions from frequencies below 20 1/cm are not included in vibrational sums.
 Their contributions, if any, are reported separately.


     Temp                                                        Transl      Rotat     Vibrat     Total
     ----                                                        ------      -----     ------     -----

     298.15   Entropy (cal/mol-K):                               44.016     31.731     57.291    133.038
              Nuclear Internal Energy (kcal/mol):                 0.889      0.889     42.771     44.549
              Constant Volume Heat Capacity (cal/mol-K):          2.981      2.981     41.503     47.464
          (c) Constant Volume Heat Capacity (cal/mol-K):          2.981      2.981     35.769     41.730

       Summary of energy terms
                                                   hartree              eV         kcal/mol           kJ/mol
                                      --------------------     -----------       ----------      -----------
      Energy from Engine:               -3.175349346852992        -86.4057         -1992.56         -8336.88
      Nuclear Internal Energy:           0.070992958679671          1.9318            44.55           186.39
  (c) Nuclear Internal Energy:           0.068070718827957          1.8523            42.72           178.72
      Internal Energy U:                -3.104356388173321        -84.4738         -1948.01         -8150.49
      pV/n = RT:                         0.000944186013486          0.0257             0.59             2.48
      Enthalpy H:                       -3.103412202159835        -84.4481         -1947.42         -8148.01
      -T*S:                             -0.063210593921837         -1.7200           -39.67          -165.96
  (c) -T*S:                             -0.060566355127187         -1.6481           -38.01          -159.02
      Gibbs free energy:                -3.166622796081672        -86.1682         -1987.09         -8313.97
 
 
 
  (c) The properties marked with this symbol have been corrected using 'low vibrational frequency free rotor
      interpolation corrections'. For those terms all positive frequencies are used (also ones below 20 1/cm),
      but the contribution to the partition function of small vibrational frequencies is modified as described
      in the following paper:
      S. Grimme, 'Supramolecular Binding Thermodynamics by Dispersion-Corrected Density Functional Theory'
      (Chem. Eur. J. 2012, 18, 9955-9964)
      Configuration: Dampener Frequency          :   100.000 1/cm
                     Dampener Alpha              :     4.000
                     Averaging Moment of Inertia : 1.000E-44 kg m2

--------------
Atomic charges
--------------
  Index   Atom    Charge
      1     Pa    1.7348
      2     Cl   -0.5606
      3     Cl   -0.5689
      4     Cl   -0.5204
      5     Cl   -0.5165
      6      O   -0.4170
      7      O   -0.7701
      8      H    0.2607
      9      H    0.2609
     10      H    0.2629
     11      H    0.2639
     12      O   -0.4298


Dipole moment vector    (Debye):     7.18850340   -1.68422554  -11.69604259
              magnitude (Debye):    13.83143554


-----------------------
Molecular orbitals info
-----------------------
n orbitals:              393
n spin:                    1

Note: only printing virtual orbitals with
      energy smaller than HOMO + 100. eV

HOMO (eV):              -8.2290
LUMO (eV):              -2.1521
HOMO-LUMO gap (eV):      6.0769

   Index   Energy (eV)    Occupation
     280       91.0898         0.000       
     279       90.6039         0.000       
     278       89.3906         0.000       
     277       88.5008         0.000       
     276       88.0976         0.000       
     275       87.0250         0.000       
     274       85.7389         0.000       
     273       85.1002         0.000       
     272       84.6612         0.000       
     271       82.3859         0.000       
     270       80.4571         0.000       
     269       79.3791         0.000       
     268       77.7736         0.000       
     267       77.6118         0.000       
     266       77.0159         0.000       
     265       76.3157         0.000       
     264       75.0624         0.000       
     263       74.3265         0.000       
     262       74.1618         0.000       
     261       73.0635         0.000       
     260       72.4139         0.000       
     259       71.8467         0.000       
     258       71.7229         0.000       
     257       71.5385         0.000       
     256       71.1701         0.000       
     255       70.6951         0.000       
     254       69.9473         0.000       
     253       69.7744         0.000       
     252       68.5999         0.000       
     251       68.3877         0.000       
     250       67.5397         0.000       
     249       66.6930         0.000       
     248       66.5933         0.000       
     247       66.2481         0.000       
     246       65.4265         0.000       
     245       63.0472         0.000       
     244       60.3840         0.000       
     243       60.0843         0.000       
     242       59.5221         0.000       
     241       59.0551         0.000       
     240       57.9430         0.000       
     239       55.4277         0.000       
     238       55.1542         0.000       
     237       53.9136         0.000       
     236       52.0802         0.000       
     235       51.2731         0.000       
     234       50.2362         0.000       
     233       49.5560         0.000       
     232       48.2850         0.000       
     231       47.5987         0.000       
     230       46.3446         0.000       
     229       44.5345         0.000       
     228       44.3669         0.000       
     227       43.5216         0.000       
     226       42.5774         0.000       
     225       41.9027         0.000       
     224       41.7056         0.000       
     223       41.2405         0.000       
     222       41.1691         0.000       
     221       40.4791         0.000       
     220       40.2087         0.000       
     219       40.1419         0.000       
     218       39.5845         0.000       
     217       39.2229         0.000       
     216       38.8965         0.000       
     215       38.2984         0.000       
     214       38.0253         0.000       
     213       37.8941         0.000       
     212       37.6484         0.000       
     211       37.3430         0.000       
     210       37.2131         0.000       
     209       37.0712         0.000       
     208       37.0066         0.000       
     207       36.9216         0.000       
     206       36.7787         0.000       
     205       36.6050         0.000       
     204       36.5263         0.000       
     203       36.2813         0.000       
     202       36.0846         0.000       
     201       35.8648         0.000       
     200       35.8107         0.000       
     199       35.6966         0.000       
     198       35.2892         0.000       
     197       35.1793         0.000       
     196       35.0009         0.000       
     195       34.9345         0.000       
     194       34.5281         0.000       
     193       33.6229         0.000       
     192       33.1755         0.000       
     191       32.5957         0.000       
     190       31.1205         0.000       
     189       30.9298         0.000       
     188       30.2440         0.000       
     187       29.8868         0.000       
     186       27.8883         0.000       
     185       27.6337         0.000       
     184       27.4209         0.000       
     183       25.8124         0.000       
     182       25.2868         0.000       
     181       24.8187         0.000       
     180       23.6558         0.000       
     179       23.5383         0.000       
     178       23.1425         0.000       
     177       22.7033         0.000       
     176       22.5231         0.000       
     175       22.2252         0.000       
     174       22.1392         0.000       
     173       21.6686         0.000       
     172       21.0654         0.000       
     171       21.0245         0.000       
     170       19.8031         0.000       
     169       19.6416         0.000       
     168       19.0777         0.000       
     167       18.7238         0.000       
     166       18.5598         0.000       
     165       17.9884         0.000       
     164       17.1938         0.000       
     163       17.0672         0.000       
     162       16.7890         0.000       
     161       16.4448         0.000       
     160       16.3225         0.000       
     159       15.8351         0.000       
     158       15.5810         0.000       
     157       15.2503         0.000       
     156       15.1129         0.000       
     155       14.9548         0.000       
     154       14.6946         0.000       
     153       14.6056         0.000       
     152       13.9180         0.000       
     151       13.8753         0.000       
     150       13.5975         0.000       
     149       13.5264         0.000       
     148       13.4442         0.000       
     147       13.3046         0.000       
     146       13.0427         0.000       
     145       12.6796         0.000       
     144       12.5190         0.000       
     143       12.4307         0.000       
     142       11.7014         0.000       
     141       11.6153         0.000       
     140       11.5720         0.000       
     139       11.3824         0.000       
     138       10.8817         0.000       
     137       10.6096         0.000       
     136       10.5391         0.000       
     135       10.4779         0.000       
     134       10.1838         0.000       
     133        9.9644         0.000       
     132        9.4674         0.000       
     131        9.4051         0.000       
     130        9.2760         0.000       
     129        8.6747         0.000       
     128        8.5686         0.000       
     127        8.5353         0.000       
     126        8.3199         0.000       
     125        8.2291         0.000       
     124        7.3521         0.000       
     123        7.1417         0.000       
     122        7.0384         0.000       
     121        6.7594         0.000       
     120        5.8216         0.000       
     119        5.2464         0.000       
     118        4.9876         0.000       
     117        3.9772         0.000       
     116        3.9483         0.000       
     115        3.7078         0.000       
     114        2.8267         0.000       
     113        2.7489         0.000       
     112        2.5660         0.000       
     111        2.4993         0.000       
     110        2.3011         0.000       
     109        2.2107         0.000       
     108        2.0469         0.000       
     107        1.8827         0.000       
     106        1.6328         0.000       
     105        1.0939         0.000       
     104        1.0772         0.000       
     103       -0.0292         0.000       
     102       -0.4075         0.000       
     101       -1.3089         0.000       
     100       -1.5691         0.000       
      99       -1.8309         0.000       
      98       -2.0098         0.000       
      97       -2.0240         0.000       
      96       -2.0920         0.000       
      95       -2.1521         0.000 < LUMO
      94       -8.2290         2.000 < HOMO
      93       -8.2743         2.000       
      92       -8.4605         2.000       
      91       -8.5027         2.000       
      90       -8.6236         2.000       
      89       -8.6476         2.000       
      88       -8.7344         2.000       
      87       -8.8233         2.000       
      86       -8.8466         2.000       
      85       -9.0992         2.000       
      84       -9.4243         2.000       
      83      -10.0222         2.000       
      82      -10.1256         2.000       
      81      -10.2630         2.000       
      80      -10.3307         2.000       
      79      -10.8282         2.000       
      78      -11.0736         2.000       
      77      -12.5699         2.000       
      76      -13.3509         2.000       
      75      -16.0231         2.000       
      74      -16.5544         2.000       
      73      -21.2258         2.000       
      72      -21.2441         2.000       
      71      -21.4426         2.000       
      70      -21.7833         2.000       
      69      -21.9387         2.000       
      68      -26.0979         2.000       
      67      -26.2945         2.000       
      66      -29.4425         2.000       
      65      -29.6428         2.000       
      64      -30.3072         2.000       
      63      -50.6087         2.000       
      62     -100.5744         2.000       
      61     -100.6050         2.000       
      60     -100.6135         2.000       
      59     -100.6821         2.000       
      58     -100.6857         2.000       
      57     -196.1432         2.000       
      56     -196.1564         2.000       
      55     -196.1734         2.000       
      54     -196.1838         2.000       
      53     -196.1876         2.000       
      52     -196.2142         2.000       
      51     -196.3346         2.000       
      50     -196.3420         2.000       
      49     -196.3555         2.000       
      48     -196.3629         2.000       
      47     -196.3652         2.000       
      46     -196.3855         2.000       
      45     -207.7486         2.000       
      44     -207.9509         2.000       
      43     -207.9654         2.000       
      42     -259.7120         2.000       
      41     -259.7426         2.000       
      40     -259.8984         2.000       
      39     -259.9190         2.000       
      38     -306.4143         2.000       
      37     -361.6855         2.000       
      36     -361.7149         2.000       
      35     -361.7264         2.000       
      34     -361.8165         2.000       
      33     -361.8346         2.000       
      32     -361.9305         2.000       
      31     -361.9316         2.000       
      30     -522.7110         2.000       
      29     -524.3970         2.000       
      28     -524.4614         2.000       
      27     -713.5152         2.000       
      26     -713.6346         2.000       
      25     -713.6409         2.000       
      24     -713.7676         2.000       
      23     -713.7996         2.000       
      22    -1041.8006         2.000       
      21    -1042.0471         2.000       
      20    -1042.0601         2.000       
      19    -1360.1479         2.000       
      18    -2775.8942         2.000       
      17    -2775.9243         2.000       
      16    -2776.0818         2.000       
      15    -2776.1020         2.000       
      14    -3485.3742         2.000       
      13    -3485.4194         2.000       
      12    -3485.4221         2.000       
      11    -3485.4829         2.000       
      10    -3485.4945         2.000       
       9    -4347.5944         2.000       
       8    -4347.7318         2.000       
       7    -4347.7389         2.000       
       6    -5318.7481         2.000       
       5   -17561.6804         2.000       
       4   -17561.6993         2.000       
       3   -17561.7007         2.000       
       2   -21037.4926         2.000       
       1  -112699.2404         2.000       

Final PES point is a local minimum. Geometry optimization successful!


AMS application finished. Exiting.
NORMAL TERMINATION
     Total cpu time:   29551.59
  Total system time:     704.48
 Total elapsed time:   30751.81
