

 Parallel Execution: Process Information
 ==============================================================================
 Rank   Node Name                              NodeID   MyNodeRank  NodeMaster
    0   u-0-10.local                              0          0          0
    1   u-0-10.local                              0          1         -1
    2   u-0-10.local                              0          2         -1
    3   u-0-10.local                              0          3         -1
    4   u-0-10.local                              1          0          1
    5   u-0-10.local                              1          1         -1
    6   u-0-10.local                              1          2         -1
    7   u-0-10.local                              1          3         -1
 ==============================================================================


May use up to 62450MB of RAM as shared memory on node 0
May use up to 124950MB of RAM as shared memory on node 1

 *******************************************************************************
 *                                                                             *
 *  --------------------------------                                           *
 *   Amsterdam Modeling Suite (AMS)              2024.103                      *
 *  --------------------------------                                           *
 *                                               r241004 2024-10-04 d82be5f7   *
 *                                                                             *
 *                                                                             *
 *                              =================                              *
 *                              |               |                              *
 *                              |     A M S     |                              *
 *                              |               |                              *
 *                              =================                              *
 *                                                                             *
 *                                                                             *
 *   Online information and documentation:  https://www.scm.com/support/       *
 *   E-mail:  support@scm.com   info@scm.com                                   *
 *                                                                             *
 *   Scientific publications using AMS results must be properly referenced     *
 *   See the User Manuals (or the web site) for recommended citations          *
 *   The terms and conditions of the End User License Agreement apply to       *
 *   the use of AMS, https://www.scm.com/license-terms/                        *
 *                                                                             *
 **********************  x86_64_linux_intel / intelmpi  ************************
 
 Licensed to: Dr. Val?rie Vallet / Laboratoire PhLAM UMR 8523 / Villeneuve d'Ascq Cedex / FRANCE 2024-12-20 16:14:47
 SCM User ID: u10325
  
 AMS 2024.103  RunTime: Jun11-2025 17:09:18  ShM Nodes: 2  Procs: 8

 AMS jobname: pao_oh_2cl_3h2o-with_h2o_trans.SR.pbe0.tz2p.opt-freq-solvation
 AMS jobid  : 1436050994

 Start   directory: /state/partition2/shaaban/1052404.phlam-s-sakura/
 Results directory: /home/shaaban/ams/PhD/geometries-exafs/pao_oh_cl2_3h2o/PBE0/pao_oh_2cl_3h2o-with_h2o_trans.SR.pbe0.tz2p.opt-freq-solvation.results/
 Scratch directory: /state/partition2/shaaban/1052404.phlam-s-sakura/amstmp_pao_oh_2cl_3h2o-with_h2o_trans.SR.pbe0.tz2p.opt-freq-solvation_kid0.1436050994/


 Communication costs MPI_COMM_WORLD:      1.120 usec per message,   0.0119 usec per 8-byte item
 Communication costs for intra-node:      0.481 usec per message,   0.0056 usec per 8-byte item

 RNG seed: 1217128381 -1557040340 593210171 -601464005 345465609 -1481166377 -49390061 1944380511



                      ************************************************************************
                      *  ADF 2024.103  RunTime: Jun11-2025 17:09:19  ShM Nodes: 2  Procs: 8  *
                      ************************************************************************
  

       ***************************
       *  GEOMETRY OPTIMIZATION  *
       ***************************

Optimization Method                    Quasi Newton
Optimization Coordinates               Delocalized Coordinates
Optimize lattice                       F
 
 ------------------------------------------------------
 Convergence criteria (Hartree,Angstrom)
 ------------------------------------------------------
 Maximum gradient               0.000100000000
 Maximum rms gradient           0.000066666667
 Maximum step allowed           0.001000000000
 Maximum rms step allowed       0.000666666667
 Maximum energy change allowe   0.000015000000
 Maximum stress energy allowe   0.000500000000
 
Initial model Hessian                  Automatic Hessian
 
------------------------------------
Quasi-Newton Optimizer Parameters
------------------------------------
Hessian Update Method                  BFGS
Maximum number of steps                  250
First GDIIS cycle                          0
Maximum GDIIS vectors                      0
Trust radius (bohr)                        0.200000
Trust radius varies                        T
Constraints converged at all steps         T
Use projector                              T
 
 Rigid motions settings for: old optimizer
 Atomic rotations (x,y,z):     T T T
 Atomic translations (x,y,z):  T T T
 Tolerance:                   1.000000000000000E-006
 
--------
Geometry
--------
Formula: H7Cl2O5Pa
Atoms
  Index Symbol   x (angstrom)   y (angstrom)   z (angstrom)
      1     Pa    -0.28652324    -0.26596131     0.48810888       adf.R=2.200
      2      O     1.62864559     1.24895571     1.09302799       adf.R=1.517
      3      O    -0.63450392     0.71873327    -1.27049828       adf.R=1.517
      4     Cl    -1.24772841     1.84791222     1.93829048       adf.R=1.725
      5      H    -0.17447964     1.02737756    -2.05960026       adf.R=1.350
      6      O    -1.20598537    -2.32651178    -0.61397421       adf.R=1.517
      7      H    -1.28402765    -2.41063089    -1.57068202       adf.R=1.350
      8      H    -1.04918999    -0.12957792    -1.44371376       adf.R=1.350
      9      H     1.52777176     1.83170315     1.85406837       adf.R=1.350
     10      O    -0.09081353    -1.30266198     1.98038760       adf.R=1.517
     11     Cl     1.97725156    -1.27359116    -0.62494265       adf.R=1.725
     12      H    -3.23741636     0.01647807     1.37185775       adf.R=1.350
     13      H     2.52477181     0.89495672     1.10695935       adf.R=1.350
     14      O    -2.81399204    -0.48175212     0.66375496       adf.R=1.517
     15      H    -3.21928237    -1.35566554     0.64559740       adf.R=1.350
 
Total System Charge             0.00000
Bonding info available!
 
 
----------------
ADF Engine Input
----------------
 
 Basis
 Type TZ2P
 Core None
 End
 XC
 Hybrid PBE0
 End
 Solvation
 Surf Delley
 Solv name=Water cav0=0.0 cav1=0.0067639
 Charged method=CONJ
 C-Mat POT
 SCF VAR ALL
 CSMRSP
 End
 NumericalQuality Good
 MBPT
 SigmaFunctionalParametrization W1
 End
 

 Title: *** (NO TITLE) ***

 Using automatic Hessian for delocalized coordinates.
 *** GO1_GOStep1 ***

 SOLVATION
-------------------------------------------

  The Delley construction of COSMO surface surface is calculated

       Division Level for Surface Triangles (NDIV)                  3
       Final Division Level for Triangles (NFDIV)                   1
       Radius of the Solvent (RSOL)                           1.93000 angstr
  Dielectric Constant (EPSL)                                 78.39000

       COSMO equation is solved iteratively-               conjugate-gradient

       Maximun of Iterations for Charges (NCIX)                  1000
       Criterion for Charge convergence (CCNV)                1.0E-08

  COSMO charges included variationally in SCF

       COSMO included at every SCF cycle

  Geometry-dependent empirical factor                         0.00000

  C-Matrix calculated in cspmtx

  In cspmtx, C-Matrix calculated using fitted potential

-------------------------------------------



 -------------------------------------------
  COSMO surface
  Area             =          620.972
  Volume           =         1130.234
  Number of Points =         1523
 -------------------------------------------
 
 RIHartreeFock Dependency: number of modified vectors:           9
 cosmo_calcen: 0.5 (esolb+esolc) (Hartrees) =   -0.083758

 Solvation energy (screening term,uncorrected) =    -52.558748 kcal/mol

 Solvation energy (dispersion and cavitation terms) =      1.161169 kcal/mol
 Solvation Energy Contributions (Hartrees)
          esola   esolb+esolc
     0.08375769   -0.16751538
 esol last cycle   -0.08375769
  
 Hartree-Fock exchange energy:   -565.334359793551     
 cosmo_calcen: 0.5 (esolb+esolc) (Hartrees) =   -0.083758

 Solvation energy (screening term,uncorrected) =    -52.558761 kcal/mol

 Solvation energy (dispersion and cavitation terms) =      1.161169 kcal/mol
 Solvation Energy Contributions (Hartrees)
          esola   esolb+esolc
     0.08375771   -0.16751542
 esol last cycle   -0.08375771

 Energy gradients wrt nuclear displacements
 ==========================================

     Atom      Cartesian (a.u./angstrom)
                 X         Y         Z
 ----------------------------------------
     1 Pa   -0.036620  0.153989 -0.217557
     2 O     0.004209  0.003360  0.001832
     3 O     0.014189 -0.077074  0.100931
     4 Cl   -0.003054  0.006417  0.006915
     5 H    -0.003185 -0.011169  0.020881
     6 O    -0.020410 -0.076908 -0.014312
     7 H    -0.002720  0.000004 -0.004357
     8 H     0.051230  0.032028  0.096890
     9 H     0.000224 -0.000882 -0.000474
    10 O    -0.000613 -0.014808  0.009725
    11 Cl    0.006276 -0.009015 -0.001918
    12 H     0.000849 -0.001751 -0.000116
    13 H    -0.001121  0.000550  0.000496
    14 O    -0.003647 -0.008031 -0.002858
    15 H    -0.005607  0.003290  0.003922
 ----------------------------------------
 Mulliken charges used for AMS results%charges...
 
----------------------------------------------------------------------
Geometry Convergence after Step   1       (Hartree/Angstrom,Angstrom)
----------------------------------------------------------------------
current energy                               -3.81688641 Hartree
energy change                      -3.81688641     0.00001500    F
constrained gradient max            0.21755654     0.00010000    F
constrained gradient rms            0.04935232     0.00006667    F
gradient max                        0.21755654
gradient rms                        0.04935232
cart. step max                      0.07062775     0.00100000    F
cart. step rms                      0.02260200     0.00066667    F
 
 
--------
Geometry
--------
Formula: H7Cl2O5Pa
Atoms
  Index Symbol   x (angstrom)   y (angstrom)   z (angstrom)
      1     Pa    -0.28219523    -0.27513456     0.50407897       adf.R=2.200
      2      O     1.63210222     1.23409277     1.11596169       adf.R=1.517
      3      O    -0.65439059     0.70454121    -1.31960684       adf.R=1.517
      4     Cl    -1.24769032     1.84533373     1.93267077       adf.R=1.725
      5      H    -0.21107458     1.01251852    -2.13022801       adf.R=1.350
      6      O    -1.20053218    -2.27963730    -0.61251400       adf.R=1.517
      7      H    -1.27358693    -2.34829493    -1.56885219       adf.R=1.350
      8      H    -1.06849366    -0.16400581    -1.47492680       adf.R=1.350
      9      H     1.53066334     1.81596429     1.87811704       adf.R=1.350
     10      O    -0.08345626    -1.29503150     1.99980013       adf.R=1.517
     11     Cl     1.98674359    -1.26083557    -0.60699288       adf.R=1.725
     12      H    -3.23530943     0.01657056     1.37988190       adf.R=1.350
     13      H     2.52803762     0.87814492     1.13071806       adf.R=1.350
     14      O    -2.80615620    -0.48255171     0.67504843       adf.R=1.517
     15      H    -3.20016318    -1.36191062     0.65548535       adf.R=1.350
 
Total System Charge             0.00000
Bonding info available!
 
 *** GO1_GOStep2 ***

 SOLVATION
-------------------------------------------

  The Delley construction of COSMO surface surface is calculated

       Division Level for Surface Triangles (NDIV)                  3
       Final Division Level for Triangles (NFDIV)                   1
       Radius of the Solvent (RSOL)                           1.93000 angstr
  Dielectric Constant (EPSL)                                 78.39000

       COSMO equation is solved iteratively-               conjugate-gradient

       Maximun of Iterations for Charges (NCIX)                  1000
       Criterion for Charge convergence (CCNV)                1.0E-08

  COSMO charges included variationally in SCF

       COSMO included at every SCF cycle

  Geometry-dependent empirical factor                         0.00000

  C-Matrix calculated in cspmtx

  In cspmtx, C-Matrix calculated using fitted potential

-------------------------------------------



 -------------------------------------------
  COSMO surface
  Area             =          620.264
  Volume           =         1127.731
  Number of Points =         1531
 -------------------------------------------
 
 RIHartreeFock Dependency: number of modified vectors:           9
 cosmo_calcen: 0.5 (esolb+esolc) (Hartrees) =   -0.078071

 Solvation energy (screening term,uncorrected) =    -48.990009 kcal/mol

 Solvation energy (dispersion and cavitation terms) =      1.159846 kcal/mol
 Solvation Energy Contributions (Hartrees)
          esola   esolb+esolc
     0.07807054   -0.15614108
 esol last cycle   -0.07807054
  
 Hartree-Fock exchange energy:   -565.317468912435     
 cosmo_calcen: 0.5 (esolb+esolc) (Hartrees) =   -0.078071

 Solvation energy (screening term,uncorrected) =    -48.990006 kcal/mol

 Solvation energy (dispersion and cavitation terms) =      1.159846 kcal/mol
 Solvation Energy Contributions (Hartrees)
          esola   esolb+esolc
     0.07807054   -0.15614107
 esol last cycle   -0.07807054

 Energy gradients wrt nuclear displacements
 ==========================================

     Atom      Cartesian (a.u./angstrom)
                 X         Y         Z
 ----------------------------------------
     1 Pa   -0.025696  0.117393 -0.154330
     2 O     0.002924  0.002250  0.000650
     3 O     0.011517 -0.041199  0.081752
     4 Cl   -0.002857  0.005510  0.006139
     5 H     0.005629 -0.000959  0.002339
     6 O    -0.021343 -0.075335 -0.017810
     7 H    -0.002123  0.002934 -0.000366
     8 H     0.034764  0.010270  0.081626
     9 H    -0.000077 -0.000418  0.000140
    10 O    -0.001111 -0.006998  0.001194
    11 Cl    0.005457 -0.007432 -0.001833
    12 H     0.000693 -0.000105  0.000568
    13 H    -0.000071  0.000175  0.000462
    14 O    -0.003147 -0.008107 -0.003720
    15 H    -0.004558  0.002020  0.003187
 ----------------------------------------
 Mulliken charges used for AMS results%charges...

 dE(predicted):    -0.11645E-01, dE(actual):    -0.17401E-01, Trust radius:    0.400000, all in a.u.
 
----------------------------------------------------------------------
Geometry Convergence after Step   2       (Hartree/Angstrom,Angstrom)
----------------------------------------------------------------------
current energy                               -3.83428764 Hartree
energy change                      -0.01740123     0.00001500    F
constrained gradient max            0.15433037     0.00010000    F
constrained gradient rms            0.03699994     0.00006667    F
gradient max                        0.15433037
gradient rms                        0.03699994
cart. step max                      0.12505389     0.00100000    F
cart. step rms                      0.04611449     0.00066667    F
 
 
--------
Geometry
--------
Formula: H7Cl2O5Pa
Atoms
  Index Symbol   x (angstrom)   y (angstrom)   z (angstrom)
      1     Pa    -0.27287423    -0.28843298     0.52717673       adf.R=2.200
      2      O     1.63867899     1.20551615     1.16458507       adf.R=1.517
      3      O    -0.70742494     0.66977684    -1.42109176       adf.R=1.517
      4     Cl    -1.24045727     1.83418114     1.92954425       adf.R=1.725
      5      H    -0.30018969     0.96346848    -2.25528190       adf.R=1.350
      6      O    -1.16844097    -2.17284339    -0.59756110       adf.R=1.517
      7      H    -1.23903770    -2.23289710    -1.55429982       adf.R=1.350
      8      H    -1.11628016    -0.21606505    -1.55235345       adf.R=1.350
      9      H     1.53555185     1.78236057     1.93055408       adf.R=1.350
     10      O    -0.06942307    -1.28855257     2.02912384       adf.R=1.517
     11     Cl     2.00161513    -1.24171292    -0.57520122       adf.R=1.725
     12      H    -3.22895991     0.02151268     1.39050217       adf.R=1.350
     13      H     2.53271421     0.84449867     1.18200024       adf.R=1.350
     14      O    -2.78866565    -0.47643331     0.69183141       adf.R=1.517
     15      H    -3.16230838    -1.36461321     0.66911308       adf.R=1.350
 
Total System Charge             0.00000
Bonding info available!
 
 *** GO1_GOStep3 ***

 SOLVATION
-------------------------------------------

  The Delley construction of COSMO surface surface is calculated

       Division Level for Surface Triangles (NDIV)                  3
       Final Division Level for Triangles (NFDIV)                   1
       Radius of the Solvent (RSOL)                           1.93000 angstr
  Dielectric Constant (EPSL)                                 78.39000

       COSMO equation is solved iteratively-               conjugate-gradient

       Maximun of Iterations for Charges (NCIX)                  1000
       Criterion for Charge convergence (CCNV)                1.0E-08

  COSMO charges included variationally in SCF

       COSMO included at every SCF cycle

  Geometry-dependent empirical factor                         0.00000

  C-Matrix calculated in cspmtx

  In cspmtx, C-Matrix calculated using fitted potential

-------------------------------------------



 -------------------------------------------
  COSMO surface
  Area             =          621.094
  Volume           =         1127.086
  Number of Points =         1530
 -------------------------------------------
 
 RIHartreeFock Dependency: number of modified vectors:           9
 cosmo_calcen: 0.5 (esolb+esolc) (Hartrees) =   -0.069998

 Solvation energy (screening term,uncorrected) =    -43.924262 kcal/mol

 Solvation energy (dispersion and cavitation terms) =      1.161397 kcal/mol
 Solvation Energy Contributions (Hartrees)
          esola   esolb+esolc
     0.06999776   -0.13999552
 esol last cycle   -0.06999776
  
 Hartree-Fock exchange energy:   -565.313782549220     
 cosmo_calcen: 0.5 (esolb+esolc) (Hartrees) =   -0.069998

 Solvation energy (screening term,uncorrected) =    -43.924256 kcal/mol

 Solvation energy (dispersion and cavitation terms) =      1.161397 kcal/mol
 Solvation Energy Contributions (Hartrees)
          esola   esolb+esolc
     0.06999775   -0.13999550
 esol last cycle   -0.06999775

 Energy gradients wrt nuclear displacements
 ==========================================

     Atom      Cartesian (a.u./angstrom)
                 X         Y         Z
 ----------------------------------------
     1 Pa   -0.010893  0.069269 -0.068438
     2 O     0.000926  0.000003 -0.000836
     3 O     0.012236 -0.003021  0.039527
     4 Cl   -0.001740  0.002282  0.004094
     5 H     0.004580  0.003020 -0.004838
     6 O    -0.019151 -0.064282 -0.014864
     7 H    -0.001663  0.008453  0.000530
     8 H     0.018088 -0.007720  0.056210
     9 H    -0.000371 -0.000167  0.000467
    10 O    -0.001385  0.002791 -0.009572
    11 Cl    0.002441 -0.005006 -0.000895
    12 H     0.001277  0.001391  0.000271
    13 H     0.000317 -0.000017  0.000436
    14 O    -0.002286 -0.007559 -0.004046
    15 H    -0.002378  0.000562  0.001955
 ----------------------------------------
 Mulliken charges used for AMS results%charges...

 dE(predicted):    -0.23222E-01, dE(actual):    -0.25496E-01, Trust radius:    0.800000, all in a.u.
 
----------------------------------------------------------------------
Geometry Convergence after Step   3       (Hartree/Angstrom,Angstrom)
----------------------------------------------------------------------
current energy                               -3.85978386 Hartree
energy change                      -0.02549622     0.00001500    F
constrained gradient max            0.06927089     0.00010000    F
constrained gradient rms            0.02106526     0.00006667    F
gradient max                        0.06927089
gradient rms                        0.02106526
cart. step max                      0.20472386     0.00100000    F
cart. step rms                      0.08108726     0.00066667    F
 
 
--------
Geometry
--------
Formula: H7Cl2O5Pa
Atoms
  Index Symbol   x (angstrom)   y (angstrom)   z (angstrom)
      1     Pa    -0.25987302    -0.31248079     0.55684416       adf.R=2.200
      2      O     1.64583148     1.15226607     1.25357984       adf.R=1.517
      3      O    -0.81818832     0.59027327    -1.58219402       adf.R=1.517
      4     Cl    -1.22427547     1.82375991     1.90472821       adf.R=1.725
      5      H    -0.46253783     0.85745619    -2.44173597       adf.R=1.350
      6      O    -1.08757078    -1.96811953    -0.59331082       adf.R=1.517
      7      H    -1.11774077    -2.08420598    -1.54719567       adf.R=1.350
      8      H    -1.21651669    -0.30056720    -1.69307617       adf.R=1.350
      9      H     1.54159072     1.71493639     2.02973545       adf.R=1.350
     10      O    -0.05955610    -1.29564644     2.07497178       adf.R=1.517
     11     Cl     2.02821902    -1.19073371    -0.53844254       adf.R=1.725
     12      H    -3.21499367     0.04381823     1.43709269       adf.R=1.350
     13      H     2.53689278     0.78399187     1.26948827       adf.R=1.350
     14      O    -2.76260043    -0.43951441     0.73625978       adf.R=1.517
     15      H    -3.11418271    -1.33546990     0.69189662       adf.R=1.350
 
Total System Charge             0.00000
Bonding info available!
 
 *** GO1_GOStep4 ***

 SOLVATION
-------------------------------------------

  The Delley construction of COSMO surface surface is calculated

       Division Level for Surface Triangles (NDIV)                  3
       Final Division Level for Triangles (NFDIV)                   1
       Radius of the Solvent (RSOL)                           1.93000 angstr
  Dielectric Constant (EPSL)                                 78.39000

       COSMO equation is solved iteratively-               conjugate-gradient

       Maximun of Iterations for Charges (NCIX)                  1000
       Criterion for Charge convergence (CCNV)                1.0E-08

  COSMO charges included variationally in SCF

       COSMO included at every SCF cycle

  Geometry-dependent empirical factor                         0.00000

  C-Matrix calculated in cspmtx

  In cspmtx, C-Matrix calculated using fitted potential

-------------------------------------------



 -------------------------------------------
  COSMO surface
  Area             =          620.288
  Volume           =         1120.540
  Number of Points =         1540
 -------------------------------------------
 
 RIHartreeFock Dependency: number of modified vectors:           9
 cosmo_calcen: 0.5 (esolb+esolc) (Hartrees) =   -0.062046

 Solvation energy (screening term,uncorrected) =    -38.934485 kcal/mol

 Solvation energy (dispersion and cavitation terms) =      1.159891 kcal/mol
 Solvation Energy Contributions (Hartrees)
          esola   esolb+esolc
     0.06204605   -0.12409209
 esol last cycle   -0.06204605
  
 Hartree-Fock exchange energy:   -565.345587373006     
 cosmo_calcen: 0.5 (esolb+esolc) (Hartrees) =   -0.062046

 Solvation energy (screening term,uncorrected) =    -38.934477 kcal/mol

 Solvation energy (dispersion and cavitation terms) =      1.159891 kcal/mol
 Solvation Energy Contributions (Hartrees)
          esola   esolb+esolc
     0.06204603   -0.12409206
 esol last cycle   -0.06204603

 Energy gradients wrt nuclear displacements
 ==========================================

     Atom      Cartesian (a.u./angstrom)
                 X         Y         Z
 ----------------------------------------
     1 Pa   -0.007817  0.006483 -0.009440
     2 O    -0.003625 -0.004486 -0.003360
     3 O     0.011460  0.013697  0.006406
     4 Cl    0.000510 -0.006189 -0.001166
     5 H    -0.002177 -0.000374 -0.005888
     6 O    -0.001223 -0.016983  0.005907
     7 H    -0.001582  0.019243 -0.002114
     8 H     0.006073 -0.020396  0.026418
     9 H    -0.000632 -0.000096  0.000681
    10 O    -0.001232  0.010558 -0.017421
    11 Cl   -0.004018 -0.000281  0.002070
    12 H     0.000892  0.003153 -0.000091
    13 H     0.000513 -0.000234  0.000325
    14 O    -0.000124 -0.003173 -0.002068
    15 H     0.002982 -0.000922 -0.000259
 ----------------------------------------
 Mulliken charges used for AMS results%charges...

 dE(predicted):    -0.17846E-01, dE(actual):    -0.21766E-01, Trust radius:    1.000000, all in a.u.
 
----------------------------------------------------------------------
Geometry Convergence after Step   4       (Hartree/Angstrom,Angstrom)
----------------------------------------------------------------------
current energy                               -3.88155006 Hartree
energy change                      -0.02176620     0.00001500    F
constrained gradient max            0.02641136     0.00010000    F
constrained gradient rms            0.00816804     0.00006667    F
gradient max                        0.02641136
gradient rms                        0.00816804
cart. step max                      0.10725430     0.00100000    F
cart. step rms                      0.03407774     0.00066667    F
 
 
--------
Geometry
--------
Formula: H7Cl2O5Pa
Atoms
  Index Symbol   x (angstrom)   y (angstrom)   z (angstrom)
      1     Pa    -0.25765810    -0.32039759     0.55374255       adf.R=2.200
      2      O     1.64743537     1.13072963     1.28845254       adf.R=1.517
      3      O    -0.86636532     0.60166988    -1.63447146       adf.R=1.517
      4     Cl    -1.19964737     1.83242710     1.88731690       adf.R=1.725
      5      H    -0.51492993     0.87982959    -2.48942948       adf.R=1.350
      6      O    -1.04998529    -1.93147461    -0.57754366       adf.R=1.517
      7      H    -1.03963363    -2.19146029    -1.50284621       adf.R=1.350
      8      H    -1.26748498    -0.27592798    -1.76315904       adf.R=1.350
      9      H     1.54250062     1.68720102     2.06857778       adf.R=1.350
     10      O    -0.06648103    -1.30444803     2.08503474       adf.R=1.517
     11     Cl     2.03587116    -1.15961098    -0.55441551       adf.R=1.725
     12      H    -3.20886010     0.05188274     1.46215256       adf.R=1.350
     13      H     2.53706380     0.75960254     1.30359285       adf.R=1.350
     14      O    -2.75818894    -0.41471392     0.74985056       adf.R=1.517
     15      H    -3.11913806    -1.30554512     0.68178648       adf.R=1.350
 
Total System Charge             0.00000
Bonding info available!
 
 *** GO1_GOStep5 ***

 SOLVATION
-------------------------------------------

  The Delley construction of COSMO surface surface is calculated

       Division Level for Surface Triangles (NDIV)                  3
       Final Division Level for Triangles (NFDIV)                   1
       Radius of the Solvent (RSOL)                           1.93000 angstr
  Dielectric Constant (EPSL)                                 78.39000

       COSMO equation is solved iteratively-               conjugate-gradient

       Maximun of Iterations for Charges (NCIX)                  1000
       Criterion for Charge convergence (CCNV)                1.0E-08

  COSMO charges included variationally in SCF

       COSMO included at every SCF cycle

  Geometry-dependent empirical factor                         0.00000

  C-Matrix calculated in cspmtx

  In cspmtx, C-Matrix calculated using fitted potential

-------------------------------------------



 -------------------------------------------
  COSMO surface
  Area             =          622.613
  Volume           =         1124.225
  Number of Points =         1541
 -------------------------------------------
 
 RIHartreeFock Dependency: number of modified vectors:           9
 cosmo_calcen: 0.5 (esolb+esolc) (Hartrees) =   -0.061226

 Solvation energy (screening term,uncorrected) =    -38.419597 kcal/mol

 Solvation energy (dispersion and cavitation terms) =      1.164237 kcal/mol
 Solvation Energy Contributions (Hartrees)
          esola   esolb+esolc
     0.06122552   -0.12245104
 esol last cycle   -0.06122552
  
 Hartree-Fock exchange energy:   -565.349429211265     
 cosmo_calcen: 0.5 (esolb+esolc) (Hartrees) =   -0.061226

 Solvation energy (screening term,uncorrected) =    -38.419600 kcal/mol

 Solvation energy (dispersion and cavitation terms) =      1.164237 kcal/mol
 Solvation Energy Contributions (Hartrees)
          esola   esolb+esolc
     0.06122552   -0.12245105
 esol last cycle   -0.06122552

 Energy gradients wrt nuclear displacements
 ==========================================

     Atom      Cartesian (a.u./angstrom)
                 X         Y         Z
 ----------------------------------------
     1 Pa   -0.010893 -0.003871 -0.014129
     2 O    -0.004992 -0.004663 -0.003208
     3 O     0.007452  0.009460 -0.003086
     4 Cl    0.001642 -0.008134 -0.002424
     5 H    -0.003976 -0.001200 -0.004047
     6 O     0.006027 -0.000386  0.015714
     7 H    -0.001284  0.013761 -0.003692
     8 H     0.007456 -0.011039  0.022173
     9 H    -0.000397 -0.000020  0.000567
    10 O    -0.000954  0.004615 -0.009799
    11 Cl   -0.004787  0.000617  0.002673
    12 H     0.000648  0.002098 -0.000311
    13 H     0.000280 -0.000217  0.000332
    14 O     0.000418  0.000153 -0.000171
    15 H     0.003362 -0.001173 -0.000592
 ----------------------------------------
 Mulliken charges used for AMS results%charges...

 dE(predicted):    -0.32061E-02, dE(actual):    -0.47156E-02, Trust radius:    1.000000, all in a.u.
 
----------------------------------------------------------------------
Geometry Convergence after Step   5       (Hartree/Angstrom,Angstrom)
----------------------------------------------------------------------
current energy                               -3.88626567 Hartree
energy change                      -0.00471561     0.00001500    F
constrained gradient max            0.02216317     0.00010000    F
constrained gradient rms            0.00662964     0.00006667    F
gradient max                        0.02216317
gradient rms                        0.00662964
cart. step max                      0.18793594     0.00100000    F
cart. step rms                      0.04407417     0.00066667    F
 
 
--------
Geometry
--------
Formula: H7Cl2O5Pa
Atoms
  Index Symbol   x (angstrom)   y (angstrom)   z (angstrom)
      1     Pa    -0.25516199    -0.32965928     0.54648607       adf.R=2.200
      2      O     1.65373904     1.10925833     1.32444127       adf.R=1.517
      3      O    -0.91663112     0.63478617    -1.67574108       adf.R=1.517
      4     Cl    -1.16528625     1.86330643     1.84807356       adf.R=1.725
      5      H    -0.54481137     0.94222715    -2.50892883       adf.R=1.350
      6      O    -1.01473001    -1.91679963    -0.57456161       adf.R=1.517
      7      H    -0.98047044    -2.37939623    -1.41625549       adf.R=1.350
      8      H    -1.32441420    -0.22073492    -1.84793300       adf.R=1.350
      9      H     1.54985356     1.66011149     2.10789542       adf.R=1.350
     10      O    -0.07546329    -1.30694346     2.09996974       adf.R=1.517
     11     Cl     2.04769001    -1.11716399    -0.58527544       adf.R=1.725
     12      H    -3.20529614     0.04161790     1.48839201       adf.R=1.350
     13      H     2.54255035     0.73700663     1.33521635       adf.R=1.350
     14      O    -2.75664169    -0.39992700     0.76000892       adf.R=1.517
     15      H    -3.14042826    -1.27792561     0.65685372       adf.R=1.350
 
Total System Charge             0.00000
Bonding info available!
 
 *** GO1_GOStep6 ***

 SOLVATION
-------------------------------------------

  The Delley construction of COSMO surface surface is calculated

       Division Level for Surface Triangles (NDIV)                  3
       Final Division Level for Triangles (NFDIV)                   1
       Radius of the Solvent (RSOL)                           1.93000 angstr
  Dielectric Constant (EPSL)                                 78.39000

       COSMO equation is solved iteratively-               conjugate-gradient

       Maximun of Iterations for Charges (NCIX)                  1000
       Criterion for Charge convergence (CCNV)                1.0E-08

  COSMO charges included variationally in SCF

       COSMO included at every SCF cycle

  Geometry-dependent empirical factor                         0.00000

  C-Matrix calculated in cspmtx

  In cspmtx, C-Matrix calculated using fitted potential

-------------------------------------------



 -------------------------------------------
  COSMO surface
  Area             =          628.460
  Volume           =         1132.678
  Number of Points =         1548
 -------------------------------------------
 
 RIHartreeFock Dependency: number of modified vectors:           9
 cosmo_calcen: 0.5 (esolb+esolc) (Hartrees) =   -0.060499

 Solvation energy (screening term,uncorrected) =    -37.963734 kcal/mol

 Solvation energy (dispersion and cavitation terms) =      1.175171 kcal/mol
 Solvation Energy Contributions (Hartrees)
          esola   esolb+esolc
     0.06049905   -0.12099811
 esol last cycle   -0.06049905
  
 Hartree-Fock exchange energy:   -565.342512683042     
 cosmo_calcen: 0.5 (esolb+esolc) (Hartrees) =   -0.060499

 Solvation energy (screening term,uncorrected) =    -37.963757 kcal/mol

 Solvation energy (dispersion and cavitation terms) =      1.175171 kcal/mol
 Solvation Energy Contributions (Hartrees)
          esola   esolb+esolc
     0.06049909   -0.12099818
 esol last cycle   -0.06049909

 Energy gradients wrt nuclear displacements
 ==========================================

     Atom      Cartesian (a.u./angstrom)
                 X         Y         Z
 ----------------------------------------
     1 Pa   -0.011453 -0.003555 -0.023050
     2 O    -0.004882 -0.003360 -0.001145
     3 O     0.002000  0.000293 -0.014807
     4 Cl    0.002720 -0.006932 -0.001970
     5 H    -0.005807 -0.001925 -0.000735
     6 O     0.008059  0.006660  0.018829
     7 H    -0.000097  0.006631 -0.004112
     8 H     0.010374  0.004519  0.021100
     9 H     0.000091 -0.000315 -0.000239
    10 O    -0.000545 -0.004654  0.003667
    11 Cl   -0.003570  0.000934  0.002249
    12 H     0.000527 -0.000328 -0.000993
    13 H    -0.000253  0.000035  0.000212
    14 O     0.000542  0.002470  0.001287
    15 H     0.002293 -0.000474 -0.000294
 ----------------------------------------
 Mulliken charges used for AMS results%charges...
 Rebuilding optimization coordinates

 dE(predicted):    -0.30016E-02, dE(actual):    -0.48815E-02, Trust radius:    1.000000, all in a.u.
 
----------------------------------------------------------------------
Geometry Convergence after Step   6       (Hartree/Angstrom,Angstrom)
----------------------------------------------------------------------
current energy                               -3.89114716 Hartree
energy change                      -0.00488150     0.00001500    F
constrained gradient max            0.02304587     0.00010000    F
constrained gradient rms            0.00699123     0.00006667    F
gradient max                        0.02304587
gradient rms                        0.00699123
cart. step max                      0.14760463     0.00100000    F
cart. step rms                      0.03522780     0.00066667    F
 
 
--------
Geometry
--------
Formula: H7Cl2O5Pa
Atoms
  Index Symbol   x (angstrom)   y (angstrom)   z (angstrom)
      1     Pa    -0.25136772    -0.34006089     0.54240380       adf.R=2.200
      2      O     1.66339608     1.09716554     1.34621299       adf.R=1.517
      3      O    -0.94802908     0.66294391    -1.68932890       adf.R=1.517
      4     Cl    -1.15322488     1.89796199     1.79348414       adf.R=1.725
      5      H    -0.53243232     1.01098714    -2.48492377       adf.R=1.350
      6      O    -0.99303465    -1.91804085    -0.59127342       adf.R=1.517
      7      H    -0.99533255    -2.52700086    -1.33418810       adf.R=1.350
      8      H    -1.35526224    -0.17844695    -1.92093217       adf.R=1.350
      9      H     1.56151004     1.64563164     2.13148591       adf.R=1.350
     10      O    -0.07373344    -1.29805321     2.11471914       adf.R=1.517
     11     Cl     2.06262750    -1.08142199    -0.60972819       adf.R=1.725
     12      H    -3.20430405     0.01840755     1.50629277       adf.R=1.350
     13      H     2.55290882     0.72651550     1.35070490       adf.R=1.350
     14      O    -2.75609547    -0.40623720     0.76700408       adf.R=1.517
     15      H    -3.16312782    -1.27058733     0.63670841       adf.R=1.350
 
Total System Charge             0.00000
Bonding info available!
 
 *** GO1_GOStep7 ***

 SOLVATION
-------------------------------------------

  The Delley construction of COSMO surface surface is calculated

       Division Level for Surface Triangles (NDIV)                  3
       Final Division Level for Triangles (NFDIV)                   1
       Radius of the Solvent (RSOL)                           1.93000 angstr
  Dielectric Constant (EPSL)                                 78.39000

       COSMO equation is solved iteratively-               conjugate-gradient

       Maximun of Iterations for Charges (NCIX)                  1000
       Criterion for Charge convergence (CCNV)                1.0E-08

  COSMO charges included variationally in SCF

       COSMO included at every SCF cycle

  Geometry-dependent empirical factor                         0.00000

  C-Matrix calculated in cspmtx

  In cspmtx, C-Matrix calculated using fitted potential

-------------------------------------------



 -------------------------------------------
  COSMO surface
  Area             =          633.734
  Volume           =         1141.524
  Number of Points =         1553
 -------------------------------------------
 
 RIHartreeFock Dependency: number of modified vectors:           9
 cosmo_calcen: 0.5 (esolb+esolc) (Hartrees) =   -0.059636

 Solvation energy (screening term,uncorrected) =    -37.422187 kcal/mol

 Solvation energy (dispersion and cavitation terms) =      1.185034 kcal/mol
 Solvation Energy Contributions (Hartrees)
          esola   esolb+esolc
     0.05963604   -0.11927209
 esol last cycle   -0.05963604
  
 Hartree-Fock exchange energy:   -565.326853201967     
 cosmo_calcen: 0.5 (esolb+esolc) (Hartrees) =   -0.059636

 Solvation energy (screening term,uncorrected) =    -37.422205 kcal/mol

 Solvation energy (dispersion and cavitation terms) =      1.185034 kcal/mol
 Solvation Energy Contributions (Hartrees)
          esola   esolb+esolc
     0.05963607   -0.11927215
 esol last cycle   -0.05963607

 Energy gradients wrt nuclear displacements
 ==========================================

     Atom      Cartesian (a.u./angstrom)
                 X         Y         Z
 ----------------------------------------
     1 Pa   -0.007716  0.001362 -0.021464
     2 O    -0.003441 -0.002361  0.000004
     3 O     0.001453  0.002182 -0.018094
     4 Cl    0.002315 -0.003978 -0.000625
     5 H    -0.004695 -0.000300 -0.000544
     6 O     0.005256  0.002823  0.013183
     7 H     0.000401  0.003044 -0.003755
     8 H     0.006455  0.003287  0.018810
     9 H     0.000136  0.000023 -0.000158
    10 O    -0.000006 -0.008278  0.011188
    11 Cl   -0.001828  0.000810  0.001359
    12 H    -0.000391 -0.001346 -0.000032
    13 H     0.000059  0.000034 -0.000062
    14 O     0.001786  0.003236  0.000042
    15 H     0.000216 -0.000536  0.000150
 ----------------------------------------
 Mulliken charges used for AMS results%charges...

 dE(predicted):    -0.17594E-02, dE(actual):    -0.28492E-02, Trust radius:    1.000000, all in a.u.
 
----------------------------------------------------------------------
Geometry Convergence after Step   7       (Hartree/Angstrom,Angstrom)
----------------------------------------------------------------------
current energy                               -3.89399635 Hartree
energy change                      -0.00284919     0.00001500    F
constrained gradient max            0.02145960     0.00010000    F
constrained gradient rms            0.00627616     0.00006667    F
gradient max                        0.02145960
gradient rms                        0.00627616
cart. step max                      0.05453547     0.00100000    F
cart. step rms                      0.01703806     0.00066667    F
 
 
--------
Geometry
--------
Formula: H7Cl2O5Pa
Atoms
  Index Symbol   x (angstrom)   y (angstrom)   z (angstrom)
      1     Pa    -0.24829495    -0.34664339     0.54167917       adf.R=2.200
      2      O     1.66866381     1.09369363     1.35450707       adf.R=1.517
      3      O    -0.96017892     0.67239660    -1.69104574       adf.R=1.517
      4     Cl    -1.15478995     1.91513062     1.75849604       adf.R=1.725
      5      H    -0.51563593     1.04473409    -2.45978621       adf.R=1.350
      6      O    -0.98499222    -1.91797876    -0.60192724       adf.R=1.517
      7      H    -1.02958059    -2.58153633    -1.29422451       adf.R=1.350
      8      H    -1.36152265    -0.16126144    -1.96089979       adf.R=1.350
      9      H     1.56746074     1.64101224     2.14052863       adf.R=1.350
     10      O    -0.06828362    -1.29100689     2.12010203       adf.R=1.517
     11     Cl     2.07154585    -1.06545966    -0.61963903       adf.R=1.725
     12      H    -3.20333802     0.00397538     1.51260720       adf.R=1.350
     13      H     2.55864657     0.72441717     1.35628655       adf.R=1.350
     14      O    -2.75466663    -0.41661206     0.77110456       adf.R=1.517
     15      H    -3.17053529    -1.27509723     0.63085286       adf.R=1.350
 
Total System Charge             0.00000
Bonding info available!
 
 *** GO1_GOStep8 ***

 SOLVATION
-------------------------------------------

  The Delley construction of COSMO surface surface is calculated

       Division Level for Surface Triangles (NDIV)                  3
       Final Division Level for Triangles (NFDIV)                   1
       Radius of the Solvent (RSOL)                           1.93000 angstr
  Dielectric Constant (EPSL)                                 78.39000

       COSMO equation is solved iteratively-               conjugate-gradient

       Maximun of Iterations for Charges (NCIX)                  1000
       Criterion for Charge convergence (CCNV)                1.0E-08

  COSMO charges included variationally in SCF

       COSMO included at every SCF cycle

  Geometry-dependent empirical factor                         0.00000

  C-Matrix calculated in cspmtx

  In cspmtx, C-Matrix calculated using fitted potential

-------------------------------------------



 -------------------------------------------
  COSMO surface
  Area             =          634.875
  Volume           =         1143.449
  Number of Points =         1551
 -------------------------------------------
 
 RIHartreeFock Dependency: number of modified vectors:           9
 cosmo_calcen: 0.5 (esolb+esolc) (Hartrees) =   -0.059183

 Solvation energy (screening term,uncorrected) =    -37.137828 kcal/mol

 Solvation energy (dispersion and cavitation terms) =      1.187168 kcal/mol
 Solvation Energy Contributions (Hartrees)
          esola   esolb+esolc
     0.05918289   -0.11836578
 esol last cycle   -0.05918289
  
 Hartree-Fock exchange energy:   -565.322777518287     
 cosmo_calcen: 0.5 (esolb+esolc) (Hartrees) =   -0.059183

 Solvation energy (screening term,uncorrected) =    -37.137833 kcal/mol

 Solvation energy (dispersion and cavitation terms) =      1.187168 kcal/mol
 Solvation Energy Contributions (Hartrees)
          esola   esolb+esolc
     0.05918290   -0.11836579
 esol last cycle   -0.05918290

 Energy gradients wrt nuclear displacements
 ==========================================

     Atom      Cartesian (a.u./angstrom)
                 X         Y         Z
 ----------------------------------------
     1 Pa   -0.005381  0.000944 -0.015863
     2 O    -0.002404 -0.002104  0.000511
     3 O     0.001514  0.003786 -0.018089
     4 Cl    0.001833 -0.002405 -0.000198
     5 H    -0.003784  0.000422 -0.000630
     6 O     0.003714  0.000722  0.009545
     7 H     0.000483  0.002568 -0.003004
     8 H     0.003978  0.001124  0.016965
     9 H     0.000098  0.000061 -0.000231
    10 O     0.000065 -0.006948  0.010261
    11 Cl   -0.001208  0.000735  0.001016
    12 H    -0.000585 -0.001548  0.000262
    13 H     0.000087  0.000100 -0.000223
    14 O     0.001954  0.002833 -0.000561
    15 H    -0.000364 -0.000290  0.000240
 ----------------------------------------
 Mulliken charges used for AMS results%charges...

 dE(predicted):    -0.68236E-03, dE(actual):    -0.12264E-02, Trust radius:    1.000000, all in a.u.
 
----------------------------------------------------------------------
Geometry Convergence after Step   8       (Hartree/Angstrom,Angstrom)
----------------------------------------------------------------------
current energy                               -3.89522276 Hartree
energy change                      -0.00122641     0.00001500    F
constrained gradient max            0.01809241     0.00010000    F
constrained gradient rms            0.00528733     0.00006667    F
gradient max                        0.01809241
gradient rms                        0.00528733
cart. step max                      0.15244886     0.00100000    F
cart. step rms                      0.04582200     0.00066667    F
 
 
--------
Geometry
--------
Formula: H7Cl2O5Pa
Atoms
  Index Symbol   x (angstrom)   y (angstrom)   z (angstrom)
      1     Pa    -0.23835527    -0.36845910     0.54151621       adf.R=2.200
      2      O     1.67850924     1.09551111     1.36675831       adf.R=1.517
      3      O    -0.97639134     0.68043072    -1.68494583       adf.R=1.517
      4     Cl    -1.17424612     1.95226997     1.65493105       adf.R=1.725
      5      H    -0.44566796     1.12102832    -2.35821612       adf.R=1.350
      6      O    -0.96931120    -1.92944293    -0.62645746       adf.R=1.517
      7      H    -1.18202945    -2.66007354    -1.20963903       adf.R=1.350
      8      H    -1.35043924    -0.12239473    -2.07217660       adf.R=1.350
      9      H     1.57653995     1.64161789     2.15328459       adf.R=1.350
     10      O    -0.04068947    -1.27511860     2.12808329       adf.R=1.517
     11     Cl     2.09660067    -1.03256454    -0.64155472       adf.R=1.725
     12      H    -3.19871639    -0.03338613     1.52444335       adf.R=1.350
     13      H     2.57046424     0.73174745     1.36551899       adf.R=1.350
     14      O    -2.74911644    -0.45726073     0.78510296       adf.R=1.517
     15      H    -3.18265301    -1.30414116     0.63199262       adf.R=1.350
 
Total System Charge             0.00000
Bonding info available!
 
 *** GO1_GOStep9 ***

 SOLVATION
-------------------------------------------

  The Delley construction of COSMO surface surface is calculated

       Division Level for Surface Triangles (NDIV)                  3
       Final Division Level for Triangles (NFDIV)                   1
       Radius of the Solvent (RSOL)                           1.93000 angstr
  Dielectric Constant (EPSL)                                 78.39000

       COSMO equation is solved iteratively-               conjugate-gradient

       Maximun of Iterations for Charges (NCIX)                  1000
       Criterion for Charge convergence (CCNV)                1.0E-08

  COSMO charges included variationally in SCF

       COSMO included at every SCF cycle

  Geometry-dependent empirical factor                         0.00000

  C-Matrix calculated in cspmtx

  In cspmtx, C-Matrix calculated using fitted potential

-------------------------------------------



 -------------------------------------------
  COSMO surface
  Area             =          638.826
  Volume           =         1153.455
  Number of Points =         1544
 -------------------------------------------
 
 RIHartreeFock Dependency: number of modified vectors:           9
 cosmo_calcen: 0.5 (esolb+esolc) (Hartrees) =   -0.058636

 Solvation energy (screening term,uncorrected) =    -36.794707 kcal/mol

 Solvation energy (dispersion and cavitation terms) =      1.194556 kcal/mol
 Solvation Energy Contributions (Hartrees)
          esola   esolb+esolc
     0.05863609   -0.11727218
 esol last cycle   -0.05863609
  
 Hartree-Fock exchange energy:   -565.316664260027     
 cosmo_calcen: 0.5 (esolb+esolc) (Hartrees) =   -0.058636

 Solvation energy (screening term,uncorrected) =    -36.794721 kcal/mol

 Solvation energy (dispersion and cavitation terms) =      1.194556 kcal/mol
 Solvation Energy Contributions (Hartrees)
          esola   esolb+esolc
     0.05863611   -0.11727223
 esol last cycle   -0.05863611

 Energy gradients wrt nuclear displacements
 ==========================================

     Atom      Cartesian (a.u./angstrom)
                 X         Y         Z
 ----------------------------------------
     1 Pa    0.001708 -0.001998  0.004592
     2 O     0.000066 -0.001533  0.001483
     3 O     0.000478  0.007213 -0.015396
     4 Cl   -0.000099  0.001384  0.000644
     5 H    -0.000156  0.002596  0.000185
     6 O    -0.000329 -0.005321  0.000174
     7 H     0.000491  0.002436 -0.001731
     8 H    -0.002343 -0.005509  0.010689
     9 H    -0.000021  0.000192 -0.000259
    10 O     0.000083 -0.000096  0.001090
    11 Cl    0.000400  0.000204  0.000104
    12 H    -0.000667 -0.001344  0.000838
    13 H     0.000323  0.000165 -0.000571
    14 O     0.001053  0.001321 -0.001843
    15 H    -0.000987  0.000289 -0.000000
 ----------------------------------------
 Mulliken charges used for AMS results%charges...

 dE(predicted):    -0.21390E-02, dE(actual):    -0.22195E-02, Trust radius:    1.000000, all in a.u.
 Residual max backtransformation error   0.1073E+06

 Delocalized step failed. Taking Cartesian step

 
----------------------------------------------------------------------
Geometry Convergence after Step   9       (Hartree/Angstrom,Angstrom)
----------------------------------------------------------------------
current energy                               -3.89744223 Hartree
energy change                      -0.00221947     0.00001500    F
constrained gradient max            0.01540367     0.00010000    F
constrained gradient rms            0.00343489     0.00006667    F
gradient max                        0.01540367
gradient rms                        0.00343489
cart. step max                      0.11500404     0.00100000    F
cart. step rms                      0.02877193     0.00066667    F
 
 
--------
Geometry
--------
Formula: H7Cl2O5Pa
Atoms
  Index Symbol   x (angstrom)   y (angstrom)   z (angstrom)
      1     Pa    -0.23153291    -0.38447083     0.53971905       adf.R=2.200
      2      O     1.67907702     1.10284426     1.36854713       adf.R=1.517
      3      O    -0.97779625     0.67449787    -1.67847160       adf.R=1.517
      4     Cl    -1.18569523     1.96506876     1.59295128       adf.R=1.725
      5      H    -0.40395455     1.15280669    -2.28996664       adf.R=1.350
      6      O    -0.96001178    -1.94260824    -0.63208812       adf.R=1.517
      7      H    -1.29703349    -2.66087636    -1.17205137       adf.R=1.350
      8      H    -1.32448438    -0.09811827    -2.14723565       adf.R=1.350
      9      H     1.57321579     1.64731254     2.15570186       adf.R=1.350
     10      O    -0.02167844    -1.27001877     2.13050813       adf.R=1.517
     11     Cl     2.11195569    -1.01918360    -0.65268778       adf.R=1.725
     12      H    -3.19287589    -0.05167197     1.52946930       adf.R=1.350
     13      H     2.57180105     0.74155670     1.37190809       adf.R=1.350
     14      O    -2.74352751    -0.48698714     0.79698931       adf.R=1.517
     15      H    -3.18296092    -1.33038764     0.64534859       adf.R=1.350
 
Total System Charge             0.00000
Bonding info available!
 
 *** GO1_GOStep10 ***

 SOLVATION
-------------------------------------------

  The Delley construction of COSMO surface surface is calculated

       Division Level for Surface Triangles (NDIV)                  3
       Final Division Level for Triangles (NFDIV)                   1
       Radius of the Solvent (RSOL)                           1.93000 angstr
  Dielectric Constant (EPSL)                                 78.39000

       COSMO equation is solved iteratively-               conjugate-gradient

       Maximun of Iterations for Charges (NCIX)                  1000
       Criterion for Charge convergence (CCNV)                1.0E-08

  COSMO charges included variationally in SCF

       COSMO included at every SCF cycle

  Geometry-dependent empirical factor                         0.00000

  C-Matrix calculated in cspmtx

  In cspmtx, C-Matrix calculated using fitted potential

-------------------------------------------



 -------------------------------------------
  COSMO surface
  Area             =          640.089
  Volume           =         1158.097
  Number of Points =         1543
 -------------------------------------------
 
 RIHartreeFock Dependency: number of modified vectors:           9
 cosmo_calcen: 0.5 (esolb+esolc) (Hartrees) =   -0.059215

 Solvation energy (screening term,uncorrected) =    -37.158251 kcal/mol

 Solvation energy (dispersion and cavitation terms) =      1.196916 kcal/mol
 Solvation Energy Contributions (Hartrees)
          esola   esolb+esolc
     0.05921544   -0.11843087
 esol last cycle   -0.05921544
  
 Hartree-Fock exchange energy:   -565.316214369820     
 cosmo_calcen: 0.5 (esolb+esolc) (Hartrees) =   -0.059215

 Solvation energy (screening term,uncorrected) =    -37.158253 kcal/mol

 Solvation energy (dispersion and cavitation terms) =      1.196916 kcal/mol
 Solvation Energy Contributions (Hartrees)
          esola   esolb+esolc
     0.05921544   -0.11843088
 esol last cycle   -0.05921544

 Energy gradients wrt nuclear displacements
 ==========================================

     Atom      Cartesian (a.u./angstrom)
                 X         Y         Z
 ----------------------------------------
     1 Pa    0.004333 -0.005535  0.013376
     2 O     0.001068 -0.001282  0.001793
     3 O    -0.002103  0.007690 -0.009125
     4 Cl   -0.000720  0.002957  0.000681
     5 H     0.002099  0.002315 -0.000728
     6 O    -0.000225 -0.003893 -0.000962
     7 H    -0.000361  0.000874 -0.002585
     8 H    -0.003639 -0.007189  0.004995
     9 H     0.000121  0.000198 -0.000256
    10 O    -0.000177  0.003595 -0.004777
    11 Cl    0.001106 -0.000143 -0.000374
    12 H    -0.000077 -0.000907  0.000570
    13 H    -0.000197  0.000432 -0.000615
    14 O    -0.000895  0.000085 -0.001359
    15 H    -0.000333  0.000803 -0.000634
 ----------------------------------------
 Mulliken charges used for AMS results%charges...
 Rebuilding optimization coordinates
Challenging geometry: could not add a dihedral for atom    7

 dE(predicted):    -0.71846E-03, dE(actual):    -0.94958E-03, Trust radius:    1.000000, all in a.u.
 
----------------------------------------------------------------------
Geometry Convergence after Step  10       (Hartree/Angstrom,Angstrom)
----------------------------------------------------------------------
current energy                               -3.89839181 Hartree
energy change                      -0.00094958     0.00001500    F
constrained gradient max            0.01434100     0.00010000    F
constrained gradient rms            0.00361615     0.00006667    F
gradient max                        0.01337624
gradient rms                        0.00352008
cart. step max                      0.21927760     0.00100000    F
cart. step rms                      0.08357465     0.00066667    F
 
 
--------
Geometry
--------
Formula: H7Cl2O5Pa
Atoms
  Index Symbol   x (angstrom)   y (angstrom)   z (angstrom)
      1     Pa    -0.24060191    -0.36490857     0.47404059       adf.R=2.200
      2      O     1.65258318     1.14375279     1.30996499       adf.R=1.517
      3      O    -0.84353881     0.71733914    -1.77188434       adf.R=1.517
      4     Cl    -1.23222758     1.81903795     1.81222888       adf.R=1.725
      5      H    -0.22004375     1.18906559    -2.33770426       adf.R=1.350
      6      O    -1.06198185    -1.97174122    -0.56458511       adf.R=1.517
      7      H    -1.48876197    -2.69735465    -1.02480339       adf.R=1.350
      8      H    -1.17304296    -0.03711930    -2.27964360       adf.R=1.350
      9      H     1.53603810     1.68974625     2.09459868       adf.R=1.350
     10      O    -0.12648315    -1.25578196     2.07187489       adf.R=1.517
     11     Cl     2.12943881    -0.97257734    -0.68095173       adf.R=1.725
     12      H    -3.16459595    -0.09955799     1.58765519       adf.R=1.350
     13      H     2.54758292     0.78805699     1.32349567       adf.R=1.350
     14      O    -2.73654541    -0.52751325     0.83827597       adf.R=1.517
     15      H    -3.16332147    -1.38068043     0.70607916       adf.R=1.350
 
Total System Charge             0.00000
Bonding info available!
 
 *** GO1_GOStep11 ***

 SOLVATION
-------------------------------------------

  The Delley construction of COSMO surface surface is calculated

       Division Level for Surface Triangles (NDIV)                  3
       Final Division Level for Triangles (NFDIV)                   1
       Radius of the Solvent (RSOL)                           1.93000 angstr
  Dielectric Constant (EPSL)                                 78.39000

       COSMO equation is solved iteratively-               conjugate-gradient

       Maximun of Iterations for Charges (NCIX)                  1000
       Criterion for Charge convergence (CCNV)                1.0E-08

  COSMO charges included variationally in SCF

       COSMO included at every SCF cycle

  Geometry-dependent empirical factor                         0.00000

  C-Matrix calculated in cspmtx

  In cspmtx, C-Matrix calculated using fitted potential

-------------------------------------------



 -------------------------------------------
  COSMO surface
  Area             =          633.163
  Volume           =         1144.741
  Number of Points =         1536
 -------------------------------------------
 
 RIHartreeFock Dependency: number of modified vectors:           9
 cosmo_calcen: 0.5 (esolb+esolc) (Hartrees) =   -0.059429

 Solvation energy (screening term,uncorrected) =    -37.292055 kcal/mol

 Solvation energy (dispersion and cavitation terms) =      1.183965 kcal/mol
 Solvation Energy Contributions (Hartrees)
          esola   esolb+esolc
     0.05942867   -0.11885733
 esol last cycle   -0.05942867
  
 Hartree-Fock exchange energy:   -565.314914099645     
 cosmo_calcen: 0.5 (esolb+esolc) (Hartrees) =   -0.059429

 Solvation energy (screening term,uncorrected) =    -37.292041 kcal/mol

 Solvation energy (dispersion and cavitation terms) =      1.183965 kcal/mol
 Solvation Energy Contributions (Hartrees)
          esola   esolb+esolc
     0.05942864   -0.11885729
 esol last cycle   -0.05942864

 Energy gradients wrt nuclear displacements
 ==========================================

     Atom      Cartesian (a.u./angstrom)
                 X         Y         Z
 ----------------------------------------
     1 Pa    0.015351  0.002725 -0.006476
     2 O     0.001834 -0.000773  0.001000
     3 O    -0.000273  0.011707 -0.012240
     4 Cl   -0.002156 -0.002168  0.004799
     5 H     0.000862  0.001101 -0.000438
     6 O    -0.011008 -0.008186  0.010455
     7 H    -0.000226  0.000813 -0.002681
     8 H    -0.001187 -0.006138  0.005998
     9 H     0.000893  0.000413 -0.000775
    10 O    -0.011369  0.002207 -0.000766
    11 Cl    0.004445  0.003025 -0.000031
    12 H    -0.001331 -0.001271  0.000618
    13 H    -0.000258  0.000020  0.000198
    14 O     0.006484 -0.003428  0.000499
    15 H    -0.002060 -0.000047 -0.000162
 ----------------------------------------
 Mulliken charges used for AMS results%charges...

 dE(predicted):    -0.26041E-02, dE(actual):     0.22260E-02, Trust radius:    0.124640, all in a.u.
 
----------------------------------------------------------------------
Geometry Convergence after Step  11       (Hartree/Angstrom,Angstrom)
----------------------------------------------------------------------
current energy                               -3.89616579 Hartree
energy change                       0.00222602     0.00001500    F
constrained gradient max            0.01535323     0.00010000    F
constrained gradient rms            0.00520530     0.00006667    F
gradient max                        0.01535396
gradient rms                        0.00520530
cart. step max                      0.05297811     0.00100000    F
cart. step rms                      0.02079995     0.00066667    F
 
 
--------
Geometry
--------
Formula: H7Cl2O5Pa
Atoms
  Index Symbol   x (angstrom)   y (angstrom)   z (angstrom)
      1     Pa    -0.24139767    -0.37011930     0.48317436       adf.R=2.200
      2      O     1.65051658     1.13534495     1.32653346       adf.R=1.517
      3      O    -0.87345980     0.70541320    -1.75236600       adf.R=1.517
      4     Cl    -1.22310298     1.85503510     1.75925077       adf.R=1.725
      5      H    -0.25537277     1.18120535    -2.32060571       adf.R=1.350
      6      O    -1.02608349    -1.97095494    -0.58985879       adf.R=1.517
      7      H    -1.44077618    -2.69370423    -1.06435915       adf.R=1.350
      8      H    -1.20475031    -0.04523560    -2.26393145       adf.R=1.350
      9      H     1.53084667     1.67772595     2.11346914       adf.R=1.350
     10      O    -0.08334860    -1.25421663     2.08093507       adf.R=1.517
     11     Cl     2.11652601    -1.00055719    -0.68154596       adf.R=1.725
     12      H    -3.16789641    -0.08008581     1.58373946       adf.R=1.350
     13      H     2.54578289     0.78001592     1.34053285       adf.R=1.350
     14      O    -2.74150943    -0.51442284     0.83729214       adf.R=1.517
     15      H    -3.17147629    -1.36567993     0.70638142       adf.R=1.350
 
Total System Charge             0.00000
Bonding info available!
 
 *** GO1_GOStep12 ***

 SOLVATION
-------------------------------------------

  The Delley construction of COSMO surface surface is calculated

       Division Level for Surface Triangles (NDIV)                  3
       Final Division Level for Triangles (NFDIV)                   1
       Radius of the Solvent (RSOL)                           1.93000 angstr
  Dielectric Constant (EPSL)                                 78.39000

       COSMO equation is solved iteratively-               conjugate-gradient

       Maximun of Iterations for Charges (NCIX)                  1000
       Criterion for Charge convergence (CCNV)                1.0E-08

  COSMO charges included variationally in SCF

       COSMO included at every SCF cycle

  Geometry-dependent empirical factor                         0.00000

  C-Matrix calculated in cspmtx

  In cspmtx, C-Matrix calculated using fitted potential

-------------------------------------------



 -------------------------------------------
  COSMO surface
  Area             =          633.465
  Volume           =         1146.423
  Number of Points =         1532
 -------------------------------------------
 
 RIHartreeFock Dependency: number of modified vectors:           9
 cosmo_calcen: 0.5 (esolb+esolc) (Hartrees) =   -0.059669

 Solvation energy (screening term,uncorrected) =    -37.442861 kcal/mol

 Solvation energy (dispersion and cavitation terms) =      1.184531 kcal/mol
 Solvation Energy Contributions (Hartrees)
          esola   esolb+esolc
     0.05966899   -0.11933798
 esol last cycle   -0.05966899
  
 Hartree-Fock exchange energy:   -565.316449354690     
 cosmo_calcen: 0.5 (esolb+esolc) (Hartrees) =   -0.059669

 Solvation energy (screening term,uncorrected) =    -37.442860 kcal/mol

 Solvation energy (dispersion and cavitation terms) =      1.184531 kcal/mol
 Solvation Energy Contributions (Hartrees)
          esola   esolb+esolc
     0.05966899   -0.11933798
 esol last cycle   -0.05966899

 Energy gradients wrt nuclear displacements
 ==========================================

     Atom      Cartesian (a.u./angstrom)
                 X         Y         Z
 ----------------------------------------
     1 Pa    0.010527  0.000242 -0.001952
     2 O     0.000766 -0.000530  0.002034
     3 O    -0.001108  0.010034 -0.010667
     4 Cl   -0.001389 -0.001035  0.003702
     5 H     0.000905  0.000495 -0.000482
     6 O    -0.006339 -0.008622  0.005604
     7 H     0.000182  0.001806 -0.002017
     8 H    -0.001037 -0.005206  0.005326
     9 H     0.000567  0.000740 -0.000170
    10 O    -0.006972  0.003166 -0.001829
    11 Cl    0.003103  0.001027 -0.000614
    12 H    -0.000745 -0.000880  0.000351
    13 H    -0.000018 -0.000087 -0.000244
    14 O     0.002199 -0.001909  0.001493
    15 H    -0.000639  0.000759 -0.000535
 ----------------------------------------
 Mulliken charges used for AMS results%charges...

 dE(predicted):    -0.17456E-02, dE(actual):    -0.15667E-02, Trust radius:    0.249280, all in a.u.
 
----------------------------------------------------------------------
Geometry Convergence after Step  12       (Hartree/Angstrom,Angstrom)
----------------------------------------------------------------------
current energy                               -3.89773246 Hartree
energy change                      -0.00156668     0.00001500    F
constrained gradient max            0.01066271     0.00010000    F
constrained gradient rms            0.00380246     0.00006667    F
gradient max                        0.01066155
gradient rms                        0.00380246
cart. step max                      0.11892310     0.00100000    F
cart. step rms                      0.03298471     0.00066667    F
 
 
--------
Geometry
--------
Formula: H7Cl2O5Pa
Atoms
  Index Symbol   x (angstrom)   y (angstrom)   z (angstrom)
      1     Pa    -0.23929124    -0.38131812     0.50960476       adf.R=2.200
      2      O     1.66011280     1.12246505     1.34091752       adf.R=1.517
      3      O    -0.92001470     0.68504516    -1.70321647       adf.R=1.517
      4     Cl    -1.21393906     1.92522670     1.64032767       adf.R=1.725
      5      H    -0.30887507     1.18238425    -2.26047801       adf.R=1.350
      6      O    -0.98297861    -1.96239131    -0.62171040       adf.R=1.517
      7      H    -1.41834020    -2.66580343    -1.10756596       adf.R=1.350
      8      H    -1.24427302    -0.05673113    -2.23243729       adf.R=1.350
      9      H     1.54178718     1.66240267     2.12918209       adf.R=1.350
     10      O    -0.01778807    -1.25947434     2.10340639       adf.R=1.517
     11     Cl     2.10913857    -1.02256962    -0.66613650       adf.R=1.725
     12      H    -3.18105285    -0.06981139     1.55555581       adf.R=1.350
     13      H     2.55431758     0.76482579     1.35493938       adf.R=1.350
     14      O    -2.74620089    -0.51640765     0.82128350       adf.R=1.517
     15      H    -3.17810422    -1.36807863     0.69496913       adf.R=1.350
 
Total System Charge             0.00000
Bonding info available!
 
 *** GO1_GOStep13 ***

 SOLVATION
-------------------------------------------

  The Delley construction of COSMO surface surface is calculated

       Division Level for Surface Triangles (NDIV)                  3
       Final Division Level for Triangles (NFDIV)                   1
       Radius of the Solvent (RSOL)                           1.93000 angstr
  Dielectric Constant (EPSL)                                 78.39000

       COSMO equation is solved iteratively-               conjugate-gradient

       Maximun of Iterations for Charges (NCIX)                  1000
       Criterion for Charge convergence (CCNV)                1.0E-08

  COSMO charges included variationally in SCF

       COSMO included at every SCF cycle

  Geometry-dependent empirical factor                         0.00000

  C-Matrix calculated in cspmtx

  In cspmtx, C-Matrix calculated using fitted potential

-------------------------------------------



 -------------------------------------------
  COSMO surface
  Area             =          636.629
  Volume           =         1154.714
  Number of Points =         1544
 -------------------------------------------
 
 RIHartreeFock Dependency: number of modified vectors:           9
 cosmo_calcen: 0.5 (esolb+esolc) (Hartrees) =   -0.060123

 Solvation energy (screening term,uncorrected) =    -37.727571 kcal/mol

 Solvation energy (dispersion and cavitation terms) =      1.190447 kcal/mol
 Solvation Energy Contributions (Hartrees)
          esola   esolb+esolc
     0.06012271   -0.12024541
 esol last cycle   -0.06012271
  
 Hartree-Fock exchange energy:   -565.317503245264     
 cosmo_calcen: 0.5 (esolb+esolc) (Hartrees) =   -0.060123

 Solvation energy (screening term,uncorrected) =    -37.727572 kcal/mol

 Solvation energy (dispersion and cavitation terms) =      1.190447 kcal/mol
 Solvation Energy Contributions (Hartrees)
          esola   esolb+esolc
     0.06012271   -0.12024541
 esol last cycle   -0.06012271

 Energy gradients wrt nuclear displacements
 ==========================================

     Atom      Cartesian (a.u./angstrom)
                 X         Y         Z
 ----------------------------------------
     1 Pa    0.005165 -0.001411  0.006356
     2 O     0.000762 -0.001097  0.002733
     3 O    -0.002326  0.007595 -0.007485
     4 Cl   -0.000886  0.002195  0.001973
     5 H     0.001693  0.000227  0.000123
     6 O    -0.001329 -0.006245  0.000393
     7 H    -0.000405  0.001434 -0.001969
     8 H    -0.001999 -0.005272  0.003492
     9 H     0.000288 -0.000024 -0.000658
    10 O    -0.001060  0.003444 -0.003608
    11 Cl    0.001355 -0.000285 -0.000322
    12 H     0.000206 -0.000411  0.000334
    13 H    -0.000001  0.000308 -0.000486
    14 O    -0.001148 -0.000194  0.000332
    15 H    -0.000313 -0.000262 -0.001208
 ----------------------------------------
 Mulliken charges used for AMS results%charges...

 dE(predicted):    -0.10375E-02, dE(actual):    -0.12161E-02, Trust radius:    0.498561, all in a.u.
 
----------------------------------------------------------------------
Geometry Convergence after Step  13       (Hartree/Angstrom,Angstrom)
----------------------------------------------------------------------
current energy                               -3.89894854 Hartree
energy change                      -0.00121608     0.00001500    F
constrained gradient max            0.00759944     0.00010000    F
constrained gradient rms            0.00272088     0.00006667    F
gradient max                        0.00759976
gradient rms                        0.00272089
cart. step max                      0.15519301     0.00100000    F
cart. step rms                      0.06471696     0.00066667    F
 
 
--------
Geometry
--------
Formula: H7Cl2O5Pa
Atoms
  Index Symbol   x (angstrom)   y (angstrom)   z (angstrom)
      1     Pa    -0.27050886    -0.38365623     0.43853187       adf.R=2.200
      2      O     1.58522707     1.14593141     1.32008236       adf.R=1.517
      3      O    -0.84422835     0.68319547    -1.74673103       adf.R=1.517
      4     Cl    -1.24461492     1.85040214     1.70684032       adf.R=1.725
      5      H    -0.17499935     1.19881024    -2.21225870       adf.R=1.350
      6      O    -0.94490471    -2.00699216    -0.65553805       adf.R=1.517
      7      H    -1.47100828    -2.68631612    -1.07501422       adf.R=1.350
      8      H    -1.13739951     0.02605045    -2.38763030       adf.R=1.350
      9      H     1.42150179     1.66570375     2.11566294       adf.R=1.350
     10      O     0.06476128    -1.20856513     2.04275494       adf.R=1.517
     11     Cl     2.04745835    -1.12642556    -0.71679620       adf.R=1.725
     12      H    -3.14437548    -0.03258921     1.63943352       adf.R=1.350
     13      H     2.48491084     0.80200399     1.36202291       adf.R=1.350
     14      O    -2.76657869    -0.51448579     0.89732215       adf.R=1.517
     15      H    -3.19074298    -1.37330327     0.82995911       adf.R=1.350
 
Total System Charge             0.00000
Bonding info available!
 
 *** GO1_GOStep14 ***

 SOLVATION
-------------------------------------------

  The Delley construction of COSMO surface surface is calculated

       Division Level for Surface Triangles (NDIV)                  3
       Final Division Level for Triangles (NFDIV)                   1
       Radius of the Solvent (RSOL)                           1.93000 angstr
  Dielectric Constant (EPSL)                                 78.39000

       COSMO equation is solved iteratively-               conjugate-gradient

       Maximun of Iterations for Charges (NCIX)                  1000
       Criterion for Charge convergence (CCNV)                1.0E-08

  COSMO charges included variationally in SCF

       COSMO included at every SCF cycle

  Geometry-dependent empirical factor                         0.00000

  C-Matrix calculated in cspmtx

  In cspmtx, C-Matrix calculated using fitted potential

-------------------------------------------



 -------------------------------------------
  COSMO surface
  Area             =          635.402
  Volume           =         1151.182
  Number of Points =         1542
 -------------------------------------------
 
 RIHartreeFock Dependency: number of modified vectors:           9
 cosmo_calcen: 0.5 (esolb+esolc) (Hartrees) =   -0.063707

 Solvation energy (screening term,uncorrected) =    -39.976736 kcal/mol

 Solvation energy (dispersion and cavitation terms) =      1.188152 kcal/mol
 Solvation Energy Contributions (Hartrees)
          esola   esolb+esolc
     0.06370698   -0.12741396
 esol last cycle   -0.06370698
  
 Hartree-Fock exchange energy:   -565.334226388276     
 cosmo_calcen: 0.5 (esolb+esolc) (Hartrees) =   -0.063707

 Solvation energy (screening term,uncorrected) =    -39.976714 kcal/mol

 Solvation energy (dispersion and cavitation terms) =      1.188152 kcal/mol
 Solvation Energy Contributions (Hartrees)
          esola   esolb+esolc
     0.06370694   -0.12741389
 esol last cycle   -0.06370694

 Energy gradients wrt nuclear displacements
 ==========================================

     Atom      Cartesian (a.u./angstrom)
                 X         Y         Z
 ----------------------------------------
     1 Pa   -0.004987  0.000864 -0.013890
     2 O    -0.005774 -0.002603  0.007488
     3 O    -0.004822  0.000244  0.000274
     4 Cl    0.001534 -0.004821  0.001869
     5 H    -0.000268 -0.005906 -0.000571
     6 O     0.010388 -0.008122 -0.002537
     7 H     0.002323  0.007031  0.002006
     8 H     0.004258  0.003443  0.002400
     9 H    -0.000425  0.002589  0.002233
    10 O     0.004200  0.008367 -0.001485
    11 Cl   -0.004690 -0.006253 -0.001275
    12 H     0.001085  0.000958 -0.001386
    13 H     0.001673 -0.001063 -0.001815
    14 O    -0.010189  0.001937  0.010109
    15 H     0.005695  0.003335 -0.003421
 ----------------------------------------
 Mulliken charges used for AMS results%charges...
 Rebuilding optimization coordinates

 dE(predicted):    -0.78096E-03, dE(actual):     0.19558E-02, Trust radius:    0.373920, all in a.u.
 
----------------------------------------------------------------------
Geometry Convergence after Step  14       (Hartree/Angstrom,Angstrom)
----------------------------------------------------------------------
current energy                               -3.89699274 Hartree
energy change                       0.00195580     0.00001500    F
constrained gradient max            0.01389268     0.00010000    F
constrained gradient rms            0.00498458     0.00006667    F
gradient max                        0.01389447
gradient rms                        0.00498460
cart. step max                      0.10340561     0.00100000    F
cart. step rms                      0.04681955     0.00066667    F
 
 
--------
Geometry
--------
Formula: H7Cl2O5Pa
Atoms
  Index Symbol   x (angstrom)   y (angstrom)   z (angstrom)
      1     Pa    -0.24670574    -0.38447836     0.49299300       adf.R=2.200
      2      O     1.64272250     1.13229476     1.32769445       adf.R=1.517
      3      O    -0.89405672     0.68191426    -1.70898218       adf.R=1.517
      4     Cl    -1.22673609     1.91334028     1.63916760       adf.R=1.725
      5      H    -0.26417383     1.20113874    -2.22408562       adf.R=1.350
      6      O    -0.97853459    -1.97489980    -0.63139820       adf.R=1.517
      7      H    -1.47112753    -2.66002636    -1.08731106       adf.R=1.350
      8      H    -1.19964170    -0.03247008    -2.28422469       adf.R=1.350
      9      H     1.51202054     1.66727369     2.11762388       adf.R=1.350
     10      O     0.00874391    -1.25469690     2.08666620       adf.R=1.517
     11     Cl     2.09936443    -1.04402100    -0.67329252       adf.R=1.725
     12      H    -3.17341089    -0.06786329     1.57252867       adf.R=1.350
     13      H     2.53780290     0.77728216     1.35213629       adf.R=1.350
     14      O    -2.75133850    -0.52957523     0.84034707       adf.R=1.517
     15      H    -3.18043048    -1.38544885     0.73877872       adf.R=1.350
 
Total System Charge             0.00000
Bonding info available!
 
 *** GO1_GOStep15 ***

 SOLVATION
-------------------------------------------

  The Delley construction of COSMO surface surface is calculated

       Division Level for Surface Triangles (NDIV)                  3
       Final Division Level for Triangles (NFDIV)                   1
       Radius of the Solvent (RSOL)                           1.93000 angstr
  Dielectric Constant (EPSL)                                 78.39000

       COSMO equation is solved iteratively-               conjugate-gradient

       Maximun of Iterations for Charges (NCIX)                  1000
       Criterion for Charge convergence (CCNV)                1.0E-08

  COSMO charges included variationally in SCF

       COSMO included at every SCF cycle

  Geometry-dependent empirical factor                         0.00000

  C-Matrix calculated in cspmtx

  In cspmtx, C-Matrix calculated using fitted potential

-------------------------------------------



 -------------------------------------------
  COSMO surface
  Area             =          634.684
  Volume           =         1152.444
  Number of Points =         1547
 -------------------------------------------
 
 RIHartreeFock Dependency: number of modified vectors:           9
 cosmo_calcen: 0.5 (esolb+esolc) (Hartrees) =   -0.061070

 Solvation energy (screening term,uncorrected) =    -38.321698 kcal/mol

[...]
     2     O      -0.009428   0.010947   0.006439
     3     O       0.000225   0.000516   0.000193
     4    Cl      -0.000014  -0.000024  -0.000010
     5     H      -0.002688  -0.006208   0.001662
     6     O       0.000085   0.000106   0.000088
     7     H      -0.001277  -0.001696  -0.001858
     8     H      -0.000563  -0.002337  -0.004271
     9     H       0.021170  -0.131884  -0.111080
    10     O      -0.000041  -0.000004   0.000033
    11    Cl      -0.000014  -0.000004   0.000012
    12     H      -0.253013   0.309594   0.533194
    13     H       0.129402  -0.041908   0.008075
    14     O      -0.002782  -0.059932  -0.035100
    15     H       0.296969   0.642739   0.025041
 
 Mode:    44      Frequency (cm-1):     3897.4617     Intensity (km/mol):      491.4266
 Index  Atom      ---- Displacements (x/y/z) ----
     1    Pa      -0.000008   0.000009   0.000013
     2     O      -0.037335   0.036581   0.019314
     3     O       0.012931   0.033854   0.022232
     4    Cl      -0.000000   0.000033   0.000043
     5     H      -0.151996  -0.328398   0.061099
     6     O       0.000943   0.001246   0.001170
     7     H      -0.015461  -0.019154  -0.019205
     8     H      -0.051429  -0.209540  -0.414805
     9     H       0.056859  -0.405439  -0.343138
    10     O      -0.000019  -0.000039  -0.000012
    11    Cl      -0.000059  -0.000028   0.000025
    12     H       0.063982  -0.079589  -0.133038
    13     H       0.535868  -0.175888   0.033681
    14     O      -0.001512   0.010058   0.008408
    15     H      -0.037320  -0.080836  -0.001141
 
 Mode:    45      Frequency (cm-1):     4079.1767     Intensity (km/mol):       71.8572
 Index  Atom      ---- Displacements (x/y/z) ----
     1    Pa      -0.000017   0.000233  -0.000021
     2     O       0.020472   0.016984   0.023284
     3     O      -0.000829  -0.005637  -0.010649
     4    Cl      -0.000087   0.000134  -0.000126
     5     H       0.002619  -0.008319   0.014393
     6     O      -0.000672   0.000492   0.000410
     7     H      -0.010028  -0.005312  -0.001607
     8     H       0.020426   0.080050   0.172172
     9     H       0.107606  -0.411333  -0.333669
    10     O      -0.000878  -0.000130   0.000590
    11    Cl      -0.000182  -0.000123   0.000306
    12     H       0.204043  -0.270325  -0.399911
    13     H      -0.414709   0.146669  -0.047453
    14     O      -0.023782  -0.010798   0.022856
    15     H       0.193667   0.400342   0.015491

 Vibrational polarizability tensor (a.u.):
                  X                   Y                   Z
 X           10793.44327         -1293.31552          5474.39512
 Y           -1293.31552          4106.51498           435.31528
 Z            5474.39512           435.31528          9187.55013

 Isotropic =      8029.2    atomic units

PES point character: Geometry corresponds to a local minimum on the PES.




 ============================
 Statistical Thermal Analysis  ***  ideal gas assumed  ***
 ============================
  
 Pressure:                  1.000000 atm.
 Temperature:             298.150000 K



 Moments of Inertia [amu*bohr^2] and principal axis
 ==================================================

        1710.3149       2513.5401       2947.6127
 ------------------------------------------------
          -0.7568          0.6222          0.2003
           0.5500          0.7717         -0.3194
           0.3532          0.1316          0.9262


 The rotational contribution to the molecular entropy includes
 a term, dependent on the symmetry number sigma. The results 
 reported below were computed using sigma = 1, determined from
 the point group symmetry of the input geometry (NOSYM). 
 If this is not the correct symmetry, try symmetrizing the molecule before
 running the calculation (note: linear molecules should be aligned along one
 of the Cartesian axes).
 Contributions from frequencies below 20 1/cm are not included in vibrational sums.
 Their contributions, if any, are reported separately.


     Temp                                                        Transl      Rotat     Vibrat     Total
     ----                                                        ------      -----     ------     -----

     298.15   Entropy (cal/mol-K):                               43.760     30.917     62.710    137.386
              Nuclear Internal Energy (kcal/mol):                 0.889      0.889     65.747     67.524
              Constant Volume Heat Capacity (cal/mol-K):          2.981      2.981     48.985     54.947
          (c) Constant Volume Heat Capacity (cal/mol-K):          2.981      2.981     43.389     49.350

       Summary of energy terms
                                                   hartree              eV         kcal/mol           kJ/mol
                                      --------------------     -----------       ----------      -----------
      Energy from Engine:               -3.902290423479666       -106.1867         -2448.72        -10245.46
      Nuclear Internal Energy:           0.107606764248862          2.9281            67.52           282.52
  (c) Nuclear Internal Energy:           0.104722698612625          2.8496            65.71           274.95
      Internal Energy U:                -3.794683659230804       -103.2586         -2381.20         -9962.94
      pV/n = RT:                         0.000944186013486          0.0257             0.59             2.48
      Enthalpy H:                       -3.793739473217318       -103.2329         -2380.61         -9960.46
      -T*S:                             -0.065276517378120         -1.7763           -40.96          -171.38
  (c) -T*S:                             -0.062872018909980         -1.7108           -39.45          -165.07
      Gibbs free energy:                -3.859015990595438       -105.0092         -2421.57        -10131.85
 
 
 
  (c) The properties marked with this symbol have been corrected using 'low vibrational frequency free rotor
      interpolation corrections'. For those terms all positive frequencies are used (also ones below 20 1/cm),
      but the contribution to the partition function of small vibrational frequencies is modified as described
      in the following paper:
      S. Grimme, 'Supramolecular Binding Thermodynamics by Dispersion-Corrected Density Functional Theory'
      (Chem. Eur. J. 2012, 18, 9955-9964)
      Configuration: Dampener Frequency          :   100.000 1/cm
                     Dampener Alpha              :     4.000
                     Averaging Moment of Inertia : 1.000E-44 kg m2

--------------
Atomic charges
--------------
  Index   Atom    Charge
      1     Pa    2.2770
      2      O   -0.3983
      3      O   -0.3758
      4     Cl   -0.5993
      5      H    0.2414
      6      O   -0.6185
      7      H    0.0479
      8      H    0.2474
      9      H    0.2445
     10      O   -0.8161
     11     Cl   -0.5893
     12      H    0.2623
     13      H    0.2425
     14      O   -0.4268
     15      H    0.2612


Dipole moment vector    (Debye):    -4.82737754    2.46641820   -6.14996148
              magnitude (Debye):     8.19809849


-----------------------
Molecular orbitals info
-----------------------
n orbitals:              410
n spin:                    1

Note: only printing virtual orbitals with
      energy smaller than HOMO + 100. eV

HOMO (eV):              -8.3476
LUMO (eV):              -1.9659
HOMO-LUMO gap (eV):      6.3817

   Index   Energy (eV)    Occupation
     273       91.3053         0.000       
     272       90.4491         0.000       
     271       90.2897         0.000       
     270       88.5402         0.000       
     269       87.8860         0.000       
     268       87.2108         0.000       
     267       86.6043         0.000       
     266       85.6471         0.000       
     265       85.0790         0.000       
     264       84.5242         0.000       
     263       84.1954         0.000       
     262       82.9597         0.000       
     261       82.0627         0.000       
     260       81.7828         0.000       
     259       80.3838         0.000       
     258       79.3239         0.000       
     257       79.1395         0.000       
     256       77.7784         0.000       
     255       76.6777         0.000       
     254       76.1690         0.000       
     253       75.7915         0.000       
     252       75.1099         0.000       
     251       74.5898         0.000       
     250       73.7306         0.000       
     249       73.0831         0.000       
     248       72.0941         0.000       
     247       71.8107         0.000       
     246       71.1168         0.000       
     245       70.8042         0.000       
     244       70.5952         0.000       
     243       69.8753         0.000       
     242       69.6333         0.000       
     241       69.1620         0.000       
     240       68.3195         0.000       
     239       67.0075         0.000       
     238       65.3261         0.000       
     237       63.6724         0.000       
     236       63.5165         0.000       
     235       62.9835         0.000       
     234       61.5748         0.000       
     233       59.5196         0.000       
     232       59.3950         0.000       
     231       58.7375         0.000       
     230       56.5103         0.000       
     229       55.7925         0.000       
     228       55.3953         0.000       
     227       54.1465         0.000       
     226       53.8328         0.000       
     225       53.4521         0.000       
     224       52.0994         0.000       
     223       51.5958         0.000       
     222       50.6976         0.000       
     221       50.1636         0.000       
     220       49.1815         0.000       
     219       48.3485         0.000       
     218       47.5950         0.000       
     217       47.1867         0.000       
     216       46.6271         0.000       
     215       46.3616         0.000       
     214       45.5512         0.000       
     213       43.5335         0.000       
     212       42.9208         0.000       
     211       42.7886         0.000       
     210       41.6087         0.000       
     209       41.4387         0.000       
     208       40.9600         0.000       
     207       40.7833         0.000       
     206       40.4161         0.000       
     205       39.6950         0.000       
     204       39.2235         0.000       
     203       39.1526         0.000       
     202       38.9024         0.000       
     201       38.6527         0.000       
     200       38.3904         0.000       
     199       38.1713         0.000       
     198       37.7733         0.000       
     197       37.6420         0.000       
     196       37.2502         0.000       
     195       37.1022         0.000       
     194       36.9745         0.000       
     193       36.7579         0.000       
     192       36.4104         0.000       
     191       36.3218         0.000       
     190       35.7295         0.000       
     189       35.6789         0.000       
     188       35.4854         0.000       
     187       35.1166         0.000       
     186       35.0403         0.000       
     185       34.5534         0.000       
     184       34.4835         0.000       
     183       34.0276         0.000       
     182       33.6586         0.000       
     181       33.3412         0.000       
     180       32.6300         0.000       
     179       32.1670         0.000       
     178       31.6329         0.000       
     177       30.1545         0.000       
     176       29.7312         0.000       
     175       29.4279         0.000       
     174       28.0827         0.000       
     173       27.5308         0.000       
     172       26.7773         0.000       
     171       25.7681         0.000       
     170       25.3784         0.000       
     169       24.7545         0.000       
     168       24.3044         0.000       
     167       23.9773         0.000       
     166       23.0937         0.000       
     165       22.4320         0.000       
     164       22.1035         0.000       
     163       21.6027         0.000       
     162       20.9656         0.000       
     161       20.4700         0.000       
     160       19.5369         0.000       
     159       19.2148         0.000       
     158       18.7490         0.000       
     157       18.5063         0.000       
     156       18.1588         0.000       
     155       17.9644         0.000       
     154       17.7190         0.000       
     153       17.1491         0.000       
     152       16.7651         0.000       
     151       16.5723         0.000       
     150       16.3979         0.000       
     149       16.3334         0.000       
     148       15.8278         0.000       
     147       15.7821         0.000       
     146       15.4745         0.000       
     145       15.2773         0.000       
     144       14.8015         0.000       
     143       14.5750         0.000       
     142       14.2664         0.000       
     141       14.1495         0.000       
     140       13.8978         0.000       
     139       13.5896         0.000       
     138       13.3372         0.000       
     137       13.1700         0.000       
     136       12.8869         0.000       
     135       12.6133         0.000       
     134       12.3940         0.000       
     133       12.0088         0.000       
     132       11.8140         0.000       
     131       11.5123         0.000       
     130       10.9652         0.000       
     129       10.6314         0.000       
     128       10.4458         0.000       
     127       10.0305         0.000       
     126        9.9713         0.000       
     125        9.8832         0.000       
     124        9.3509         0.000       
     123        9.1146         0.000       
     122        8.9093         0.000       
     121        8.6247         0.000       
     120        8.3517         0.000       
     119        7.8835         0.000       
     118        7.7077         0.000       
     117        7.4317         0.000       
     116        7.0680         0.000       
     115        6.5245         0.000       
     114        5.6420         0.000       
     113        5.3394         0.000       
     112        4.9713         0.000       
     111        4.7709         0.000       
     110        4.3965         0.000       
     109        3.9498         0.000       
     108        3.6456         0.000       
     107        3.4184         0.000       
     106        2.5826         0.000       
     105        2.4933         0.000       
     104        2.3060         0.000       
     103        2.0906         0.000       
     102        2.0312         0.000       
     101        1.8987         0.000       
     100        1.8024         0.000       
      99        1.6369         0.000       
      98        1.4782         0.000       
      97        1.1212         0.000       
      96        0.7948         0.000       
      95        0.5234         0.000       
      94       -0.2313         0.000       
      93       -1.1251         0.000       
      92       -1.3784         0.000       
      91       -1.4738         0.000       
      90       -1.6841         0.000       
      89       -1.8274         0.000       
      88       -1.9175         0.000       
      87       -1.9659         0.000 < LUMO
      86       -8.3476         2.000 < HOMO
      85       -8.4041         2.000       
      84       -8.4730         2.000       
      83       -8.5655         2.000       
      82       -8.7119         2.000       
      81       -8.9250         2.000       
      80       -9.3946         2.000       
      79       -9.5747         2.000       
      78       -9.8456         2.000       
      77      -10.0671         2.000       
      76      -10.1517         2.000       
      75      -10.5430         2.000       
      74      -10.8318         2.000       
      73      -11.0662         2.000       
      72      -12.6610         2.000       
      71      -13.1800         2.000       
      70      -13.4677         2.000       
      69      -13.9657         2.000       
      68      -16.1894         2.000       
      67      -16.2644         2.000       
      66      -16.5570         2.000       
      65      -21.2370         2.000       
      64      -21.4992         2.000       
      63      -21.5918         2.000       
      62      -24.7512         2.000       
      61      -25.7977         2.000       
      60      -28.3288         2.000       
      59      -29.5245         2.000       
      58      -29.6984         2.000       
      57      -29.8461         2.000       
      56      -30.3598         2.000       
      55      -50.4706         2.000       
      54     -100.4355         2.000       
      53     -100.4535         2.000       
      52     -100.4860         2.000       
      51     -100.5425         2.000       
      50     -100.5461         2.000       
      49     -196.0831         2.000       
      48     -196.0871         2.000       
      47     -196.0913         2.000       
      46     -196.0924         2.000       
      45     -196.1188         2.000       
      44     -196.1222         2.000       
      43     -207.6172         2.000       
      42     -207.8120         2.000       
      41     -207.8486         2.000       
      40     -259.6470         2.000       
      39     -259.6527         2.000       
      38     -306.2887         2.000       
      37     -361.5524         2.000       
      36     -361.5771         2.000       
      35     -361.5979         2.000       
      34     -361.6918         2.000       
      33     -361.6948         2.000       
      32     -361.8146         2.000       
      31     -361.8171         2.000       
      30     -522.5627         2.000       
      29     -523.0430         2.000       
      28     -524.3713         2.000       
      27     -524.3900         2.000       
      26     -524.7431         2.000       
      25     -713.3838         2.000       
      24     -713.4845         2.000       
      23     -713.5141         2.000       
      22     -713.6632         2.000       
      21     -713.6682         2.000       
      20    -1041.6595         2.000       
      19    -1041.9179         2.000       
      18    -1041.9454         2.000       
      17    -1360.0221         2.000       
      16    -2775.8292         2.000       
      15    -2775.8346         2.000       
      14    -3485.2431         2.000       
      13    -3485.2817         2.000       
      12    -3485.2940         2.000       
      11    -3485.3635         2.000       
      10    -3485.3652         2.000       
       9    -4347.4584         2.000       
       8    -4347.6030         2.000       
       7    -4347.6188         2.000       
       6    -5318.6218         2.000       
       5   -17561.5414         2.000       
       4   -17561.5615         2.000       
       3   -17561.5636         2.000       
       2   -21037.3404         2.000       
       1  -112699.1037         2.000       

Final PES point is a local minimum. Geometry optimization successful!


AMS application finished. Exiting.
NORMAL TERMINATION
     Total cpu time:  152191.61
  Total system time:   84164.35
 Total elapsed time:  247658.26
 WARNING: total system time is high compared to CPU time. 
 Make sure the machine is not oversubscribed and has enough memory, SCM_TMPDIR p
 oints to a fast file system, and the network is fast enough.
