

 Parallel Execution: Process Information
 ==============================================================================
 Rank   Node Name                              NodeID   MyNodeRank  NodeMaster
    0   u-0-2.local                               0          0          0
    1   u-0-2.local                               0          1         -1
    2   u-0-2.local                               0          2         -1
    3   u-0-2.local                               0          3         -1
    4   u-0-2.local                               1          0          1
    5   u-0-2.local                               1          1         -1
    6   u-0-2.local                               1          2         -1
    7   u-0-2.local                               1          3         -1
    8   u-0-2.local                               2          0          2
    9   u-0-2.local                               2          1         -1
   10   u-0-2.local                               2          2         -1
   11   u-0-2.local                               2          3         -1
   12   u-0-2.local                               3          0          3
   13   u-0-2.local                               3          1         -1
   14   u-0-2.local                               3          2         -1
   15   u-0-2.local                               3          3         -1
 ==============================================================================


May use up to 31228MB of RAM as shared memory on node 0
May use up to 31250MB of RAM as shared memory on node 3
May use up to 31250MB of RAM as shared memory on node 1
May use up to 31250MB of RAM as shared memory on node 2

 *******************************************************************************
 *                                                                             *
 *  --------------------------------                                           *
 *   Amsterdam Modeling Suite (AMS)              2023.104                      *
 *  --------------------------------                                           *
 *                                               r115785 2023-10-06            *
 *                                                                             *
 *                                                                             *
 *                              =================                              *
 *                              |               |                              *
 *                              |     A M S     |                              *
 *                              |               |                              *
 *                              =================                              *
 *                                                                             *
 *                                                                             *
 *   Online information and documentation:  https://www.scm.com/support/       *
 *   E-mail:  support@scm.com   info@scm.com                                   *
 *                                                                             *
 *   Scientific publications using AMS results must be properly referenced     *
 *   See the User Manuals (or the web site) for recommended citations          *
 *   The terms and conditions of the End User License Agreement apply to       *
 *   the use of AMS, https://www.scm.com/license-terms/                        *
 *                                                                             *
 **********************  x86_64_linux_intel / intelmpi  ************************
 
 Licensed to: Dr. Val?rie Vallet / Laboratoire PhLAM UMR 8523 / Villeneuve d'Ascq Cedex / FRANCE 2024-02-19 16:59:55
 SCM User ID: u10325
  
 AMS 2023.104  RunTime: Jul03-2024 10:33:59  ShM Nodes: 4  Procs: 16

 AMS jobname: pao_oh_2cl_3h2o.SR.pbe0.tz2p.opt-freq-solvation-trans
 AMS jobid  : 614771666

 Start   directory: /home/shaaban/ams/PhD/geometries-exafs/pao_oh_cl2_3h2o/PBE0/
 Results directory: /home/shaaban/ams/PhD/geometries-exafs/pao_oh_cl2_3h2o/PBE0/pao_oh_2cl_3h2o.SR.pbe0.tz2p.opt-freq-solvation-trans.results/
 Scratch directory: /state/partition2/shaaban/1021760.phlam-s-sakura/amstmp_pao_oh_2cl_3h2o.SR.pbe0.tz2p.opt-freq-solvation-trans_kid0.614771666/


 Communication costs MPI_COMM_WORLD:     -1.640 usec per message,   0.0447 usec per 8-byte item
 Communication costs for intra-node:      0.477 usec per message,   0.0084 usec per 8-byte item

 RNG seed: 1858623366 1494346486 979118309 1700624319 -1622607974 350620420 705781200 763571462



                     *************************************************************************
                     *  ADF 2023.104  RunTime: Jul03-2024 10:34:01  ShM Nodes: 4  Procs: 16  *
                     *************************************************************************
  

       ***************************
       *  GEOMETRY OPTIMIZATION  *
       ***************************

Optimization Method                    Quasi Newton
Optimization Coordinates               Delocalized Coordinates
Optimize lattice                       F
 
 ------------------------------------------------------
 Convergence criteria (Hartree,Angstrom)
 ------------------------------------------------------
 Maximum gradient               0.000100000000
 Maximum rms gradient           0.000066666667
 Maximum step allowed           0.001000000000
 Maximum rms step allowed       0.000666666667
 Maximum energy change allowe   0.000015000000
 Maximum stress energy allowe   0.000500000000
 
Initial model Hessian                  Automatic Hessian
 
------------------------------------
Quasi-Newton Optimizer Parameters
------------------------------------
Hessian Update Method                  BFGS
Maximum number of steps                  250
First GDIIS cycle                          0
Maximum GDIIS vectors                      0
Trust radius (bohr)                        0.200000
Trust radius varies                        T
Constraints converged at all steps         T
Use projector                              T
 
 Rigid motions settings for: old optimizer
 Atomic rotations (x,y,z):     T T T
 Atomic translations (x,y,z):  T T T
 Tolerance:                   1.000000000000000E-006
 
--------
Geometry
--------
Formula: H7Cl2O5Pa
Atoms
  Index Symbol   x (angstrom)   y (angstrom)   z (angstrom)
      1     Pa    -0.28652324    -0.26596131     0.48810888       adf.R=2.200
      2      O     1.62864559     1.24895571     1.09302799       adf.R=1.517
      3     Cl    -0.73227293     0.99539406    -1.76459834       adf.R=1.725
      4     Cl    -1.24772841     1.84791222     1.93829048       adf.R=1.725
      5      H     1.88857344    -1.90510623     0.02609328       adf.R=1.350
      6      O    -1.20598536    -2.32651178    -0.61397421       adf.R=1.517
      7      H    -1.28402765    -2.41063089    -1.57068202       adf.R=1.350
      8      H    -0.95963066    -3.19744075    -0.28338595       adf.R=1.350
      9      H     1.52777176     1.83170315     1.85406837       adf.R=1.350
     10      O    -0.09081353    -1.30266198     1.98038760       adf.R=1.517
     11      O     1.62189492    -1.11541820    -0.45022110       adf.R=1.517
     12      H    -3.23741636     0.01647807     1.37185775       adf.R=1.350
     13      H     2.52477181     0.89495672     1.10695935       adf.R=1.350
     14      O    -2.81399203    -0.48175212     0.66375496       adf.R=1.517
     15      H    -3.21928237    -1.35566554     0.64559740       adf.R=1.350
 
Total System Charge             0.00000
Bonding info available!
 
 
----------------
ADF Engine Input
----------------
 
 Basis
 Type TZ2P
 Core None
 End
 XC
 Hybrid PBE0
 End
 Solvation
 Surf Delley
 Solv name=Water cav0=0.0 cav1=0.0067639
 Charged method=CONJ
 C-Mat POT
 SCF VAR ALL
 CSMRSP
 End
 NumericalQuality Good
 

 Title: *** (NO TITLE) ***

 Using automatic Hessian for delocalized coordinates.
 *** GO1_GOStep1 ***

 SOLVATION
-------------------------------------------

  The Delley construction of COSMO surface surface is calculated

       Division Level for Surface Triangles (NDIV)                  3
       Final Division Level for Triangles (NFDIV)                   1
       Radius of the Solvent (RSOL)                           1.93000 angstr
  Dielectric Constant (EPSL)                                 78.39000

       COSMO equation is solved iteratively-               conjugate-gradient

       Maximun of Iterations for Charges (NCIX)                  1000
       Criterion for Charge convergence (CCNV)                1.0E-08

  COSMO charges included variationally in SCF

       COSMO included at every SCF cycle

  Geometry-dependent empirical factor                         0.00000

  C-Matrix calculated in cspmtx

  In cspmtx, C-Matrix calculated using fitted potential

-------------------------------------------



 -------------------------------------------
  COSMO surface
  Area             =          630.847
  Volume           =         1157.342
  Number of Points =         1509
 -------------------------------------------



 ======================
 RI Hartree-Fock Scheme
 ======================
  
 Fit Set Quality     : GOOD
 Threshold Quality   : GOOD
 Integration Quality : GOOD
 Fit Generation Method : AUTO
 Response Quality    : DEFAULT
 Is Range Separated  :  F
 
 RIHartreeFock Dependency: number of modified vectors:           9
 cosmo_calcen: 0.5 (esolb+esolc) (Hartrees) =   -0.060874

 Solvation energy (screening term,uncorrected) =    -38.198948 kcal/mol

 Solvation energy (dispersion and cavitation terms) =      1.179635 kcal/mol
 Solvation Energy Contributions (Hartrees)
          esola   esolb+esolc
     0.06087389   -0.12174779
 esol last cycle   -0.06087389
  
 Hartree-Fock exchange energy:   -565.301850994123     
 cosmo_calcen: 0.5 (esolb+esolc) (Hartrees) =   -0.060874

 Solvation energy (screening term,uncorrected) =    -38.198936 kcal/mol

 Solvation energy (dispersion and cavitation terms) =      1.179635 kcal/mol
 Solvation Energy Contributions (Hartrees)
          esola   esolb+esolc
     0.06087387   -0.12174775
 esol last cycle   -0.06087387

 Energy gradients wrt nuclear displacements
 ==========================================

     Atom      Cartesian (a.u./angstrom)
                 X         Y         Z
 ----------------------------------------
     1 Pa   -0.046966  0.009331  0.019694
     2 O     0.005092  0.001200 -0.000134
     3 Cl   -0.001077  0.002759 -0.003785
     4 Cl   -0.002080  0.004862  0.003635
     5 H    -0.007081  0.004514 -0.000488
     6 O     0.001680 -0.001217 -0.001545
     7 H    -0.000296  0.000061  0.000599
     8 H    -0.000091  0.000303 -0.000140
     9 H    -0.000729 -0.000686  0.000381
    10 O     0.002310 -0.000285  0.003363
    11 O     0.051061 -0.022968 -0.022286
    12 H     0.000470 -0.000417 -0.000191
    13 H     0.000875  0.001650  0.000879
    14 O    -0.003534  0.000280 -0.000330
    15 H     0.000366  0.000613  0.000347
 ----------------------------------------
 Mulliken charges used for AMS results%charges...
 
----------------------------------------------------------------------
Geometry Convergence after Step   1       (Hartree/Angstrom,Angstrom)
----------------------------------------------------------------------
current energy                               -3.90079217 Hartree
energy change                      -3.90079217     0.00001500    F
constrained gradient max            0.05106378     0.00010000    F
constrained gradient rms            0.01203487     0.00006667    F
gradient max                        0.05106378
gradient rms                        0.01203487
cart. step max                      0.01951150     0.00100000    F
cart. step rms                      0.00674647     0.00066667    F
 
 
--------
Geometry
--------
Formula: H7Cl2O5Pa
Atoms
  Index Symbol   x (angstrom)   y (angstrom)   z (angstrom)
      1     Pa    -0.28223982    -0.26674841     0.48748268       adf.R=2.200
      2      O     1.62916440     1.24710985     1.09311458       adf.R=1.517
      3     Cl    -0.72586133     0.98696875    -1.76680204       adf.R=1.725
      4     Cl    -1.24328691     1.84610823     1.93215815       adf.R=1.725
      5      H     1.90096945    -1.88559473     0.03340664       adf.R=1.350
      6      O    -1.21305956    -2.32284032    -0.61242651       adf.R=1.517
      7      H    -1.29032437    -2.40684587    -1.56952569       adf.R=1.350
      8      H    -0.97021314    -3.19487696    -0.28169564       adf.R=1.350
      9      H     1.53278000     1.83233272     1.85287267       adf.R=1.350
     10      O    -0.09557218    -1.31025643     1.97444191       adf.R=1.517
     11      O     1.60275959    -1.10234072    -0.44094044       adf.R=1.517
     12      H    -3.23333097     0.01120263     1.37155300       adf.R=1.350
     13      H     2.52273141     0.88692979     1.10512226       adf.R=1.350
     14      O    -2.80773864    -0.48626404     0.66381634       adf.R=1.517
     15      H    -3.21279296    -1.36063335     0.64270654       adf.R=1.350
 
Total System Charge             0.00000
Bonding info available!
 
 *** GO1_GOStep2 ***

 SOLVATION
-------------------------------------------

  The Delley construction of COSMO surface surface is calculated

       Division Level for Surface Triangles (NDIV)                  3
       Final Division Level for Triangles (NFDIV)                   1
       Radius of the Solvent (RSOL)                           1.93000 angstr
  Dielectric Constant (EPSL)                                 78.39000

       COSMO equation is solved iteratively-               conjugate-gradient

       Maximun of Iterations for Charges (NCIX)                  1000
       Criterion for Charge convergence (CCNV)                1.0E-08

  COSMO charges included variationally in SCF

       COSMO included at every SCF cycle

  Geometry-dependent empirical factor                         0.00000

  C-Matrix calculated in cspmtx

  In cspmtx, C-Matrix calculated using fitted potential

-------------------------------------------



 -------------------------------------------
  COSMO surface
  Area             =          629.328
  Volume           =         1154.472
  Number of Points =         1498
 -------------------------------------------



 ======================
 RI Hartree-Fock Scheme
 ======================
  
 Fit Set Quality     : GOOD
 Threshold Quality   : GOOD
 Integration Quality : GOOD
 Fit Generation Method : AUTO
 Response Quality    : DEFAULT
 Is Range Separated  :  F
 
 RIHartreeFock Dependency: number of modified vectors:           9
 cosmo_calcen: 0.5 (esolb+esolc) (Hartrees) =   -0.060470

 Solvation energy (screening term,uncorrected) =    -37.945450 kcal/mol

 Solvation energy (dispersion and cavitation terms) =      1.176794 kcal/mol
 Solvation Energy Contributions (Hartrees)
          esola   esolb+esolc
     0.06046992   -0.12093984
 esol last cycle   -0.06046992
  
 Hartree-Fock exchange energy:   -565.310612358160     
 cosmo_calcen: 0.5 (esolb+esolc) (Hartrees) =   -0.060470

 Solvation energy (screening term,uncorrected) =    -37.945451 kcal/mol

 Solvation energy (dispersion and cavitation terms) =      1.176794 kcal/mol
 Solvation Energy Contributions (Hartrees)
          esola   esolb+esolc
     0.06046992   -0.12093984
 esol last cycle   -0.06046992

 Energy gradients wrt nuclear displacements
 ==========================================

     Atom      Cartesian (a.u./angstrom)
                 X         Y         Z
 ----------------------------------------
     1 Pa   -0.041172  0.006148  0.020611
     2 O     0.004437  0.000663 -0.000475
     3 Cl   -0.000524  0.001506 -0.001726
     4 Cl   -0.001279  0.003369  0.002384
     5 H    -0.005220 -0.000339  0.002502
     6 O     0.001711  0.000124 -0.000287
     7 H    -0.000369  0.000118 -0.000065
     8 H    -0.000044 -0.000033 -0.000014
     9 H    -0.000912 -0.000451  0.000441
    10 O     0.001386  0.002348 -0.001386
    11 O     0.042764 -0.014759 -0.022156
    12 H     0.000292  0.000052  0.000300
    13 H     0.000588  0.001172  0.000587
    14 O    -0.001625  0.000270 -0.000953
    15 H    -0.000032 -0.000186  0.000239
 ----------------------------------------
 Mulliken charges used for AMS results%charges...

 dE(predicted):    -0.92876E-03, dE(actual):    -0.16785E-02, Trust radius:    0.200000, all in a.u.
 
----------------------------------------------------------------------
Geometry Convergence after Step   2       (Hartree/Angstrom,Angstrom)
----------------------------------------------------------------------
current energy                               -3.90247068 Hartree
energy change                      -0.00167851     0.00001500    F
constrained gradient max            0.04276832     0.00010000    F
constrained gradient rms            0.01032047     0.00006667    F
gradient max                        0.04276832
gradient rms                        0.01032047
cart. step max                      0.05892561     0.00100000    F
cart. step rms                      0.01568084     0.00066667    F
 
 
--------
Geometry
--------
Formula: H7Cl2O5Pa
Atoms
  Index Symbol   x (angstrom)   y (angstrom)   z (angstrom)
      1     Pa    -0.26767506    -0.26911904     0.48482609       adf.R=2.200
      2      O     1.62876467     1.24642251     1.09575537       adf.R=1.517
      3     Cl    -0.70760975     0.96793720    -1.77350169       adf.R=1.725
      4     Cl    -1.23239369     1.83710063     1.91887306       adf.R=1.725
      5      H     1.90748365    -1.84915090     0.02567572       adf.R=1.350
      6      O    -1.22246831    -2.31886348    -0.60824390       adf.R=1.517
      7      H    -1.30083257    -2.40370224    -1.56520343       adf.R=1.350
      8      H    -0.98665971    -3.19240524    -0.27652530       adf.R=1.350
      9      H     1.54303492     1.83743084     1.85199420       adf.R=1.350
     10      O    -0.10512474    -1.32891575     1.96687177       adf.R=1.517
     11      O     1.54383398    -1.06826890    -0.40725010       adf.R=1.517
     12      H    -3.22004479     0.00315240     1.36747205       adf.R=1.350
     13      H     2.51654787     0.87269763     1.10514154       adf.R=1.350
     14      O    -2.78968206    -0.49262213     0.66157528       adf.R=1.517
     15      H    -3.19318946    -1.36744240     0.63782377       adf.R=1.350
 
Total System Charge             0.00000
Bonding info available!
 
 *** GO1_GOStep3 ***

 SOLVATION
-------------------------------------------

  The Delley construction of COSMO surface surface is calculated

       Division Level for Surface Triangles (NDIV)                  3
       Final Division Level for Triangles (NFDIV)                   1
       Radius of the Solvent (RSOL)                           1.93000 angstr
  Dielectric Constant (EPSL)                                 78.39000

       COSMO equation is solved iteratively-               conjugate-gradient

       Maximun of Iterations for Charges (NCIX)                  1000
       Criterion for Charge convergence (CCNV)                1.0E-08

  COSMO charges included variationally in SCF

       COSMO included at every SCF cycle

  Geometry-dependent empirical factor                         0.00000

  C-Matrix calculated in cspmtx

  In cspmtx, C-Matrix calculated using fitted potential

-------------------------------------------



 -------------------------------------------
  COSMO surface
  Area             =          625.451
  Volume           =         1145.536
  Number of Points =         1492
 -------------------------------------------



 ======================
 RI Hartree-Fock Scheme
 ======================
  
 Fit Set Quality     : GOOD
 Threshold Quality   : GOOD
 Integration Quality : GOOD
 Fit Generation Method : AUTO
 Response Quality    : DEFAULT
 Is Range Separated  :  F
 
 RIHartreeFock Dependency: number of modified vectors:           9
 cosmo_calcen: 0.5 (esolb+esolc) (Hartrees) =   -0.060031

 Solvation energy (screening term,uncorrected) =    -37.670151 kcal/mol

 Solvation energy (dispersion and cavitation terms) =      1.169546 kcal/mol
 Solvation Energy Contributions (Hartrees)
          esola   esolb+esolc
     0.06003120   -0.12006240
 esol last cycle   -0.06003120
  
 Hartree-Fock exchange energy:   -565.339127316131     
 cosmo_calcen: 0.5 (esolb+esolc) (Hartrees) =   -0.060031

 Solvation energy (screening term,uncorrected) =    -37.670169 kcal/mol

 Solvation energy (dispersion and cavitation terms) =      1.169546 kcal/mol
 Solvation Energy Contributions (Hartrees)
          esola   esolb+esolc
     0.06003123   -0.12006246
 esol last cycle   -0.06003123

 Energy gradients wrt nuclear displacements
 ==========================================

     Atom      Cartesian (a.u./angstrom)
                 X         Y         Z
 ----------------------------------------
     1 Pa   -0.017510 -0.002114  0.011432
     2 O     0.001805 -0.000269 -0.000874
     3 Cl    0.000935 -0.001840  0.003880
     4 Cl    0.000902 -0.001136 -0.001054
     5 H    -0.004685 -0.002170  0.003888
     6 O     0.001997  0.002494  0.001446
     7 H    -0.000345  0.000356 -0.000355
     8 H    -0.000171 -0.000143  0.000107
     9 H    -0.000881 -0.000227  0.000146
    10 O     0.000379  0.005231 -0.007101
    11 O     0.015586  0.000165 -0.010585
    12 H     0.000184  0.000008  0.000340
    13 H    -0.000203 -0.000116 -0.000038
    14 O     0.002188 -0.000130 -0.001581
    15 H    -0.000180 -0.000107  0.000349
 ----------------------------------------
 Mulliken charges used for AMS results%charges...

 dE(predicted):    -0.33872E-02, dE(actual):    -0.32129E-02, Trust radius:    0.400000, all in a.u.
 
----------------------------------------------------------------------
Geometry Convergence after Step   3       (Hartree/Angstrom,Angstrom)
----------------------------------------------------------------------
current energy                               -3.90568361 Hartree
energy change                      -0.00321292     0.00001500    F
constrained gradient max            0.01751043     0.00010000    F
constrained gradient rms            0.00462909     0.00006667    F
gradient max                        0.01751043
gradient rms                        0.00462909
cart. step max                      0.03623869     0.00100000    F
cart. step rms                      0.01030822     0.00066667    F
 
 
--------
Geometry
--------
Formula: H7Cl2O5Pa
Atoms
  Index Symbol   x (angstrom)   y (angstrom)   z (angstrom)
      1     Pa    -0.25889258    -0.27173956     0.48127641       adf.R=2.200
      2      O     1.62704071     1.24611812     1.10147269       adf.R=1.517
      3     Cl    -0.70044095     0.95507219    -1.78360045       adf.R=1.725
      4     Cl    -1.22682448     1.83253317     1.91038930       adf.R=1.725
      5      H     1.93488034    -1.82355494     0.01060352       adf.R=1.350
      6      O    -1.22958498    -2.31993739    -0.60796371       adf.R=1.517
      7      H    -1.30526663    -2.40717769    -1.56479458       adf.R=1.350
      8      H    -0.99696247    -3.19359946    -0.27461276       adf.R=1.350
      9      H     1.54718583     1.84100062     1.85518079       adf.R=1.350
     10      O    -0.11699207    -1.34258084     1.96573044       adf.R=1.517
     11      O     1.50759529    -1.05736256    -0.38903327       adf.R=1.517
     12      H    -3.21325113     0.00477629     1.36874434       adf.R=1.350
     13      H     2.51282363     0.86763225     1.10978861       adf.R=1.350
     14      O    -2.78125102    -0.49143351     0.66425481       adf.R=1.517
     15      H    -3.18607453    -1.36549558     0.63784832       adf.R=1.350
 
Total System Charge             0.00000
Bonding info available!
 
 *** GO1_GOStep4 ***

 SOLVATION
-------------------------------------------

  The Delley construction of COSMO surface surface is calculated

       Division Level for Surface Triangles (NDIV)                  3
       Final Division Level for Triangles (NFDIV)                   1
       Radius of the Solvent (RSOL)                           1.93000 angstr
  Dielectric Constant (EPSL)                                 78.39000

       COSMO equation is solved iteratively-               conjugate-gradient

       Maximun of Iterations for Charges (NCIX)                  1000
       Criterion for Charge convergence (CCNV)                1.0E-08

  COSMO charges included variationally in SCF

       COSMO included at every SCF cycle

  Geometry-dependent empirical factor                         0.00000

  C-Matrix calculated in cspmtx

  In cspmtx, C-Matrix calculated using fitted potential

-------------------------------------------



 -------------------------------------------
  COSMO surface
  Area             =          624.591
  Volume           =         1142.232
  Number of Points =         1492
 -------------------------------------------



 ======================
 RI Hartree-Fock Scheme
 ======================
  
 Fit Set Quality     : GOOD
 Threshold Quality   : GOOD
 Integration Quality : GOOD
 Fit Generation Method : AUTO
 Response Quality    : DEFAULT
 Is Range Separated  :  F
 
 RIHartreeFock Dependency: number of modified vectors:           9
 cosmo_calcen: 0.5 (esolb+esolc) (Hartrees) =   -0.060282

 Solvation energy (screening term,uncorrected) =    -37.827552 kcal/mol

 Solvation energy (dispersion and cavitation terms) =      1.167937 kcal/mol
 Solvation Energy Contributions (Hartrees)
          esola   esolb+esolc
     0.06028203   -0.12056407
 esol last cycle   -0.06028203
  
 Hartree-Fock exchange energy:   -565.351152297241     
 cosmo_calcen: 0.5 (esolb+esolc) (Hartrees) =   -0.060282

 Solvation energy (screening term,uncorrected) =    -37.827549 kcal/mol

 Solvation energy (dispersion and cavitation terms) =      1.167937 kcal/mol
 Solvation Energy Contributions (Hartrees)
          esola   esolb+esolc
     0.06028203   -0.12056406
 esol last cycle   -0.06028203

 Energy gradients wrt nuclear displacements
 ==========================================

     Atom      Cartesian (a.u./angstrom)
                 X         Y         Z
 ----------------------------------------
     1 Pa    0.001180 -0.005021 -0.001276
     2 O    -0.000149 -0.000170 -0.000844
     3 Cl    0.001556 -0.003095  0.005997
     4 Cl    0.001953 -0.003341 -0.002659
     5 H    -0.004073 -0.002288  0.004018
     6 O     0.002158  0.003136  0.002127
     7 H    -0.000272  0.000274 -0.000195
     8 H    -0.000298 -0.000160 -0.000166
     9 H    -0.000516 -0.000058  0.000038
    10 O     0.000033  0.002728 -0.004656
    11 O    -0.004571  0.009053 -0.001363
    12 H    -0.000008  0.000131  0.000340
    13 H    -0.000532 -0.000914 -0.000306
    14 O     0.003787 -0.000098 -0.001305
    15 H    -0.000247 -0.000175  0.000250
 ----------------------------------------
 Mulliken charges used for AMS results%charges...

 dE(predicted):    -0.62654E-03, dE(actual):    -0.60058E-03, Trust radius:    0.400000, all in a.u.
 
----------------------------------------------------------------------
Geometry Convergence after Step   4       (Hartree/Angstrom,Angstrom)
----------------------------------------------------------------------
current energy                               -3.90628419 Hartree
energy change                      -0.00060058     0.00001500    F
constrained gradient max            0.00902854     0.00010000    F
constrained gradient rms            0.00261582     0.00006667    F
gradient max                        0.00902854
gradient rms                        0.00261582
cart. step max                      0.02870069     0.00100000    F
cart. step rms                      0.00538489     0.00066667    F
 
 
--------
Geometry
--------
Formula: H7Cl2O5Pa
Atoms
  Index Symbol   x (angstrom)   y (angstrom)   z (angstrom)
      1     Pa    -0.25891899    -0.27260554     0.47996382       adf.R=2.200
      2      O     1.62612907     1.24539638     1.10554974       adf.R=1.517
      3     Cl    -0.70410403     0.95281126    -1.78939461       adf.R=1.725
      4     Cl    -1.22847207     1.83381348     1.90948273       adf.R=1.725
      5      H     1.96358102    -1.81899604     0.00061374       adf.R=1.350
      6      O    -1.23359553    -2.32193712    -0.60949845       adf.R=1.517
      7      H    -1.30566860    -2.41088957    -1.56641934       adf.R=1.350
      8      H    -1.00065935    -3.19491396    -0.27461518       adf.R=1.350
      9      H     1.54606600     1.84112352     1.85857615       adf.R=1.350
     10      O    -0.12292257    -1.34350606     1.96816282       adf.R=1.517
     11      O     1.50730756    -1.06534254    -0.38972543       adf.R=1.517
     12      H    -3.21479692     0.00888345     1.37153217       adf.R=1.350
     13      H     2.51325383     0.86987813     1.11397282       adf.R=1.350
     14      O    -2.78345313    -0.48809143     0.66732022       adf.R=1.517
     15      H    -3.18976133    -1.36137283     0.63976326       adf.R=1.350
 
Total System Charge             0.00000
Bonding info available!
 
 *** GO1_GOStep5 ***

 SOLVATION
-------------------------------------------

  The Delley construction of COSMO surface surface is calculated

       Division Level for Surface Triangles (NDIV)                  3
       Final Division Level for Triangles (NFDIV)                   1
       Radius of the Solvent (RSOL)                           1.93000 angstr
  Dielectric Constant (EPSL)                                 78.39000

       COSMO equation is solved iteratively-               conjugate-gradient

       Maximun of Iterations for Charges (NCIX)                  1000
       Criterion for Charge convergence (CCNV)                1.0E-08

  COSMO charges included variationally in SCF

       COSMO included at every SCF cycle

  Geometry-dependent empirical factor                         0.00000

  C-Matrix calculated in cspmtx

  In cspmtx, C-Matrix calculated using fitted potential

-------------------------------------------



 -------------------------------------------
  COSMO surface
  Area             =          626.016
  Volume           =         1144.466
  Number of Points =         1494
 -------------------------------------------



 ======================
 RI Hartree-Fock Scheme
 ======================
  
 Fit Set Quality     : GOOD
 Threshold Quality   : GOOD
 Integration Quality : GOOD
 Fit Generation Method : AUTO
 Response Quality    : DEFAULT
 Is Range Separated  :  F
 
 RIHartreeFock Dependency: number of modified vectors:           9
 cosmo_calcen: 0.5 (esolb+esolc) (Hartrees) =   -0.060288

 Solvation energy (screening term,uncorrected) =    -37.831505 kcal/mol

 Solvation energy (dispersion and cavitation terms) =      1.170601 kcal/mol
 Solvation Energy Contributions (Hartrees)
          esola   esolb+esolc
     0.06028833   -0.12057667
 esol last cycle   -0.06028833
  
 Hartree-Fock exchange energy:   -565.345559217060     
 cosmo_calcen: 0.5 (esolb+esolc) (Hartrees) =   -0.060288

 Solvation energy (screening term,uncorrected) =    -37.831500 kcal/mol

 Solvation energy (dispersion and cavitation terms) =      1.170601 kcal/mol
 Solvation Energy Contributions (Hartrees)
          esola   esolb+esolc
     0.06028833   -0.12057665
 esol last cycle   -0.06028833

 Energy gradients wrt nuclear displacements
 ==========================================

     Atom      Cartesian (a.u./angstrom)
                 X         Y         Z
 ----------------------------------------
     1 Pa   -0.000742 -0.001418 -0.003370
     2 O    -0.000289  0.000281 -0.000656
     3 Cl    0.001258 -0.002387  0.004724
     4 Cl    0.001583 -0.002722 -0.002123
     5 H    -0.003143 -0.002028  0.003399
     6 O     0.002130  0.002575  0.001814
     7 H    -0.000261  0.000135 -0.000111
     8 H    -0.000378 -0.000161 -0.000322
     9 H    -0.000229 -0.000057  0.000046
    10 O     0.000276 -0.000102 -0.000921
    11 O    -0.002590  0.006710 -0.001930
    12 H    -0.000033  0.000144  0.000196
    13 H    -0.000412 -0.000831 -0.000164
    14 O     0.003010 -0.000014 -0.000745
    15 H    -0.000182 -0.000125  0.000164
 ----------------------------------------
 Mulliken charges used for AMS results%charges...

 dE(predicted):    -0.15854E-03, dE(actual):    -0.27863E-03, Trust radius:    0.400000, all in a.u.
 
----------------------------------------------------------------------
Geometry Convergence after Step   5       (Hartree/Angstrom,Angstrom)
----------------------------------------------------------------------
current energy                               -3.90656282 Hartree
energy change                      -0.00027863     0.00001500    F
constrained gradient max            0.00668732     0.00010000    F
constrained gradient rms            0.00192023     0.00006667    F
gradient max                        0.00668732
gradient rms                        0.00192023
cart. step max                      0.11082915     0.00100000    F
cart. step rms                      0.02187933     0.00066667    F
 
 
--------
Geometry
--------
Formula: H7Cl2O5Pa
Atoms
  Index Symbol   x (angstrom)   y (angstrom)   z (angstrom)
      1     Pa    -0.25662924    -0.27681623     0.47627236       adf.R=2.200
      2      O     1.62558123     1.23822434     1.12460587       adf.R=1.517
      3     Cl    -0.71615123     0.93969645    -1.81284405       adf.R=1.725
      4     Cl    -1.23439332     1.84031439     1.90268429       adf.R=1.725
      5      H     2.07441018    -1.78726206    -0.05266956       adf.R=1.350
      6      O    -1.25416417    -2.32926299    -0.61187658       adf.R=1.517
      7      H    -1.30952846    -2.42600384    -1.56908689       adf.R=1.350
      8      H    -1.01892791    -3.19846731    -0.26876529       adf.R=1.350
      9      H     1.54420953     1.83821779     1.87412391       adf.R=1.350
     10      O    -0.14839631    -1.34083673     1.97744676       adf.R=1.517
     11      O     1.50077923    -1.09138279    -0.38576888       adf.R=1.517
     12      H    -3.21991608     0.01991347     1.37961772       adf.R=1.350
     13      H     2.51795008     0.87480953     1.13296558       adf.R=1.350
     14      O    -2.79002013    -0.47808009     0.67580716       adf.R=1.517
     15      H    -3.20081844    -1.34881281     0.64277204       adf.R=1.350
 
Total System Charge             0.00000
Bonding info available!
 
 *** GO1_GOStep6 ***

 SOLVATION
-------------------------------------------

  The Delley construction of COSMO surface surface is calculated

       Division Level for Surface Triangles (NDIV)                  3
       Final Division Level for Triangles (NFDIV)                   1
       Radius of the Solvent (RSOL)                           1.93000 angstr
  Dielectric Constant (EPSL)                                 78.39000

       COSMO equation is solved iteratively-               conjugate-gradient

       Maximun of Iterations for Charges (NCIX)                  1000
       Criterion for Charge convergence (CCNV)                1.0E-08

  COSMO charges included variationally in SCF

       COSMO included at every SCF cycle

  Geometry-dependent empirical factor                         0.00000

  C-Matrix calculated in cspmtx

  In cspmtx, C-Matrix calculated using fitted potential

-------------------------------------------



 -------------------------------------------
  COSMO surface
  Area             =          627.640
  Volume           =         1145.619
  Number of Points =         1491
 -------------------------------------------



 ======================
 RI Hartree-Fock Scheme
 ======================
  
 Fit Set Quality     : GOOD
 Threshold Quality   : GOOD
 Integration Quality : GOOD
 Fit Generation Method : AUTO
 Response Quality    : DEFAULT
 Is Range Separated  :  F
 
 RIHartreeFock Dependency: number of modified vectors:           9
 cosmo_calcen: 0.5 (esolb+esolc) (Hartrees) =   -0.060404

 Solvation energy (screening term,uncorrected) =    -37.903916 kcal/mol

 Solvation energy (dispersion and cavitation terms) =      1.173638 kcal/mol
 Solvation Energy Contributions (Hartrees)
          esola   esolb+esolc
     0.06040373   -0.12080746
 esol last cycle   -0.06040373
  
 Hartree-Fock exchange energy:   -565.332556812726     
 cosmo_calcen: 0.5 (esolb+esolc) (Hartrees) =   -0.060404

 Solvation energy (screening term,uncorrected) =    -37.903913 kcal/mol

 Solvation energy (dispersion and cavitation terms) =      1.173638 kcal/mol
 Solvation Energy Contributions (Hartrees)
          esola   esolb+esolc
     0.06040372   -0.12080745
 esol last cycle   -0.06040372

 Energy gradients wrt nuclear displacements
 ==========================================

     Atom      Cartesian (a.u./angstrom)
                 X         Y         Z
 ----------------------------------------
     1 Pa   -0.002540  0.005239 -0.007047
     2 O    -0.000875  0.001433 -0.000076
     3 Cl    0.000277 -0.000187  0.000662
     4 Cl    0.000316 -0.000864 -0.000388
     5 H    -0.001351  0.000257  0.000748
     6 O     0.001455  0.000883  0.000663
     7 H    -0.000244 -0.000200  0.000099
     8 H    -0.000513 -0.000165 -0.000565
     9 H     0.000712 -0.000009  0.000097
    10 O     0.000273 -0.005488  0.006368
    11 O     0.001860 -0.000614 -0.001423
    12 H    -0.000080  0.000120 -0.000324
    13 H    -0.000012 -0.000558  0.000222
    14 O     0.000740  0.000044  0.001045
    15 H    -0.000018  0.000110 -0.000079
 ----------------------------------------
 Mulliken charges used for AMS results%charges...

 dE(predicted):    -0.47964E-03, dE(actual):    -0.57427E-03, Trust radius:    0.400000, all in a.u.
 
----------------------------------------------------------------------
Geometry Convergence after Step   6       (Hartree/Angstrom,Angstrom)
----------------------------------------------------------------------
current energy                               -3.90713709 Hartree
energy change                      -0.00057427     0.00001500    F
constrained gradient max            0.00705388     0.00010000    F
constrained gradient rms            0.00196438     0.00006667    F
gradient max                        0.00705388
gradient rms                        0.00196438
cart. step max                      0.03526334     0.00100000    F
cart. step rms                      0.00810963     0.00066667    F
 
 
--------
Geometry
--------
Formula: H7Cl2O5Pa
Atoms
  Index Symbol   x (angstrom)   y (angstrom)   z (angstrom)
      1     Pa    -0.25570400    -0.27833332     0.47675594       adf.R=2.200
      2      O     1.62751983     1.23223278     1.13255151       adf.R=1.517
      3     Cl    -0.72040563     0.93391498    -1.81945655       adf.R=1.725
      4     Cl    -1.23565018     1.84507545     1.89873856       adf.R=1.725
      5      H     2.10967351    -1.77114313    -0.07852516       adf.R=1.350
      6      O    -1.26333823    -2.33153615    -0.60986442       adf.R=1.517
      7      H    -1.31078641    -2.43121258    -1.56722394       adf.R=1.350
      8      H    -1.02509951    -3.19845111    -0.26288030       adf.R=1.350
      9      H     1.54445265     1.83387880     1.88054646       adf.R=1.350
     10      O    -0.15682765    -1.33460495     1.98140964       adf.R=1.517
     11      O     1.49650526    -1.09646497    -0.38271383       adf.R=1.517
     12      H    -3.22218329     0.01996530     1.38052865       adf.R=1.350
     13      H     2.52183341     0.87373710     1.14038326       adf.R=1.350
     14      O    -2.79245397    -0.47618537     0.67538139       adf.R=1.517
     15      H    -3.20355083    -1.34662170     0.63965323       adf.R=1.350
 
Total System Charge             0.00000
Bonding info available!
 
 *** GO1_GOStep7 ***

 SOLVATION
-------------------------------------------

  The Delley construction of COSMO surface surface is calculated

       Division Level for Surface Triangles (NDIV)                  3
       Final Division Level for Triangles (NFDIV)                   1
       Radius of the Solvent (RSOL)                           1.93000 angstr
  Dielectric Constant (EPSL)                                 78.39000

       COSMO equation is solved iteratively-               conjugate-gradient

       Maximun of Iterations for Charges (NCIX)                  1000
       Criterion for Charge convergence (CCNV)                1.0E-08

  COSMO charges included variationally in SCF

       COSMO included at every SCF cycle

  Geometry-dependent empirical factor                         0.00000

  C-Matrix calculated in cspmtx

  In cspmtx, C-Matrix calculated using fitted potential

-------------------------------------------



 -------------------------------------------
  COSMO surface
  Area             =          628.541
  Volume           =         1146.052
  Number of Points =         1493
 -------------------------------------------



 ======================
 RI Hartree-Fock Scheme
 ======================
  
 Fit Set Quality     : GOOD
 Threshold Quality   : GOOD
 Integration Quality : GOOD
 Fit Generation Method : AUTO
 Response Quality    : DEFAULT
 Is Range Separated  :  F
 
 RIHartreeFock Dependency: number of modified vectors:           9
 cosmo_calcen: 0.5 (esolb+esolc) (Hartrees) =   -0.060483

 Solvation energy (screening term,uncorrected) =    -37.953929 kcal/mol

 Solvation energy (dispersion and cavitation terms) =      1.175322 kcal/mol
 Solvation Energy Contributions (Hartrees)
          esola   esolb+esolc
     0.06048343   -0.12096686
 esol last cycle   -0.06048343
  
 Hartree-Fock exchange energy:   -565.332318199605     
 cosmo_calcen: 0.5 (esolb+esolc) (Hartrees) =   -0.060483

 Solvation energy (screening term,uncorrected) =    -37.953922 kcal/mol

 Solvation energy (dispersion and cavitation terms) =      1.175322 kcal/mol
 Solvation Energy Contributions (Hartrees)
          esola   esolb+esolc
     0.06048342   -0.12096684
 esol last cycle   -0.06048342

 Energy gradients wrt nuclear displacements
 ==========================================

     Atom      Cartesian (a.u./angstrom)
                 X         Y         Z
 ----------------------------------------
     1 Pa   -0.001370  0.003377 -0.004590
     2 O    -0.000773  0.001381  0.000018
     3 Cl    0.000024  0.000275 -0.000246
     4 Cl   -0.000007 -0.000384  0.000034
     5 H    -0.000714  0.000470  0.000278
     6 O     0.001001  0.000571  0.000285
     7 H    -0.000295 -0.000220  0.000070
     8 H    -0.000453 -0.000115 -0.000422
     9 H     0.000770  0.000002  0.000110
    10 O    -0.000064 -0.003830  0.004346
    11 O     0.001623 -0.001237 -0.000793
    12 H    -0.000099  0.000135 -0.000346
    13 H     0.000042 -0.000449  0.000214
    14 O     0.000363 -0.000140  0.001149
    15 H    -0.000050  0.000164 -0.000107
 ----------------------------------------
 Mulliken charges used for AMS results%charges...

 dE(predicted):    -0.63621E-04, dE(actual):    -0.10279E-03, Trust radius:    0.400000, all in a.u.
 
----------------------------------------------------------------------
Geometry Convergence after Step   7       (Hartree/Angstrom,Angstrom)
----------------------------------------------------------------------
current energy                               -3.90723988 Hartree
energy change                      -0.00010279     0.00001500    F
constrained gradient max            0.00459552     0.00010000    F
constrained gradient rms            0.00133911     0.00006667    F
gradient max                        0.00459552
gradient rms                        0.00133911
cart. step max                      0.02798401     0.00100000    F
cart. step rms                      0.00751590     0.00066667    F
 
 
--------
Geometry
--------
Formula: H7Cl2O5Pa
Atoms
  Index Symbol   x (angstrom)   y (angstrom)   z (angstrom)
      1     Pa    -0.25577681    -0.27937372     0.47878702       adf.R=2.200
      2      O     1.63039736     1.22404955     1.14028740       adf.R=1.517
      3     Cl    -0.72485813     0.92876366    -1.82292358       adf.R=1.725
      4     Cl    -1.23544756     1.85202933     1.89417020       adf.R=1.725
      5      H     2.13483417    -1.75596788    -0.10650917       adf.R=1.350
      6      O    -1.27147389    -2.33387719    -0.60558948       adf.R=1.517
      7      H    -1.30901967    -2.43585012    -1.56318512       adf.R=1.350
      8      H    -1.02742736    -3.19777462    -0.25487201       adf.R=1.350
      9      H     1.54418770     1.82711169     1.88674839       adf.R=1.350
     10      O    -0.16237574    -1.32555407     1.98637068       adf.R=1.517
     11      O     1.49062308    -1.09771841    -0.38128085       adf.R=1.517
     12      H    -3.22486024     0.01763200     1.38034328       adf.R=1.350
     13      H     2.52655695     0.87057188     1.14755489       adf.R=1.350
     14      O    -2.79563143    -0.47449745     0.67202700       adf.R=1.517
     15      H    -3.20574348    -1.34529351     0.63335581       adf.R=1.350
 
Total System Charge             0.00000
Bonding info available!
 
 *** GO1_GOStep8 ***

 SOLVATION
-------------------------------------------

  The Delley construction of COSMO surface surface is calculated

       Division Level for Surface Triangles (NDIV)                  3
       Final Division Level for Triangles (NFDIV)                   1
       Radius of the Solvent (RSOL)                           1.93000 angstr
  Dielectric Constant (EPSL)                                 78.39000

       COSMO equation is solved iteratively-               conjugate-gradient

       Maximun of Iterations for Charges (NCIX)                  1000
       Criterion for Charge convergence (CCNV)                1.0E-08

  COSMO charges included variationally in SCF

       COSMO included at every SCF cycle

  Geometry-dependent empirical factor                         0.00000

  C-Matrix calculated in cspmtx

  In cspmtx, C-Matrix calculated using fitted potential

-------------------------------------------



 -------------------------------------------
  COSMO surface
  Area             =          628.980
  Volume           =         1145.719
  Number of Points =         1495
 -------------------------------------------



 ======================
 RI Hartree-Fock Scheme
 ======================
  
 Fit Set Quality     : GOOD
 Threshold Quality   : GOOD
 Integration Quality : GOOD
 Fit Generation Method : AUTO
 Response Quality    : DEFAULT
 Is Range Separated  :  F
 
 RIHartreeFock Dependency: number of modified vectors:           9
 cosmo_calcen: 0.5 (esolb+esolc) (Hartrees) =   -0.060583

 Solvation energy (screening term,uncorrected) =    -38.016620 kcal/mol

 Solvation energy (dispersion and cavitation terms) =      1.176145 kcal/mol
 Solvation Energy Contributions (Hartrees)
          esola   esolb+esolc
     0.06058333   -0.12116667
 esol last cycle   -0.06058333
  
 Hartree-Fock exchange energy:   -565.334266376963     
 cosmo_calcen: 0.5 (esolb+esolc) (Hartrees) =   -0.060583

 Solvation energy (screening term,uncorrected) =    -38.016625 kcal/mol

 Solvation energy (dispersion and cavitation terms) =      1.176145 kcal/mol
 Solvation Energy Contributions (Hartrees)
          esola   esolb+esolc
     0.06058334   -0.12116668
 esol last cycle   -0.06058334

 Energy gradients wrt nuclear displacements
 ==========================================

     Atom      Cartesian (a.u./angstrom)
                 X         Y         Z
 ----------------------------------------
     1 Pa    0.000124 -0.000120 -0.000537
     2 O    -0.000373  0.001002  0.000099
     3 Cl   -0.000102  0.000453 -0.000649
     4 Cl   -0.000170 -0.000009  0.000269
     5 H     0.000019  0.000268  0.000091
     6 O     0.000530  0.000427  0.000021
     7 H    -0.000288 -0.000124  0.000047
     8 H    -0.000371 -0.000123 -0.000240
     9 H     0.000538 -0.000015  0.000064
    10 O    -0.000348 -0.000739  0.000384
    11 O     0.000423 -0.000671 -0.000160
    12 H    -0.000104  0.000148 -0.000245
    13 H     0.000021 -0.000330  0.000109
    14 O     0.000258 -0.000357  0.000854
    15 H    -0.000158  0.000191 -0.000106
 ----------------------------------------
 Mulliken charges used for AMS results%charges...

 dE(predicted):    -0.40481E-04, dE(actual):    -0.70744E-04, Trust radius:    0.400000, all in a.u.
 
----------------------------------------------------------------------
Geometry Convergence after Step   8       (Hartree/Angstrom,Angstrom)
----------------------------------------------------------------------
current energy                               -3.90731062 Hartree
energy change                      -0.00007074     0.00001500    F
constrained gradient max            0.00104117     0.00010000    F
constrained gradient rms            0.00036453     0.00006667    F
gradient max                        0.00104117
gradient rms                        0.00036453
cart. step max                      0.01212433     0.00100000    F
cart. step rms                      0.00312389     0.00066667    F
 
 
--------
Geometry
--------
Formula: H7Cl2O5Pa
Atoms
  Index Symbol   x (angstrom)   y (angstrom)   z (angstrom)
      1     Pa    -0.25691844    -0.27920584     0.48032619       adf.R=2.200
      2      O     1.63174346     1.21950282     1.14316427       adf.R=1.517
      3     Cl    -0.72732870     0.92766968    -1.82225498       adf.R=1.725
      4     Cl    -1.23445501     1.85638938     1.89201036       adf.R=1.725
      5      H     2.13802077    -1.75236663    -0.11863350       adf.R=1.350
      6      O    -1.27347555    -2.33507628    -0.60273955       adf.R=1.517
      7      H    -1.30514077    -2.43760992    -1.56054015       adf.R=1.350
      8      H    -1.02419169    -3.19694038    -0.25062283       adf.R=1.350
      9      H     1.54330848     1.82280654     1.88916896       adf.R=1.350
     10      O    -0.16267279    -1.32054550     1.98954021       adf.R=1.517
     11      O     1.48683527    -1.09653374    -0.38278879       adf.R=1.517
     12      H    -3.22625218     0.01574383     1.38010654       adf.R=1.350
     13      H     2.52865613     0.86823517     1.15025905       adf.R=1.350
     14      O    -2.79783947    -0.47311497     0.66895946       adf.R=1.517
     15      H    -3.20630456    -1.34470304     0.62932921       adf.R=1.350
 
Total System Charge             0.00000
Bonding info available!
 
 *** GO1_GOStep9 ***

 SOLVATION
-------------------------------------------

  The Delley construction of COSMO surface surface is calculated

       Division Level for Surface Triangles (NDIV)                  3
       Final Division Level for Triangles (NFDIV)                   1
       Radius of the Solvent (RSOL)                           1.93000 angstr
  Dielectric Constant (EPSL)                                 78.39000

       COSMO equation is solved iteratively-               conjugate-gradient

       Maximun of Iterations for Charges (NCIX)                  1000
       Criterion for Charge convergence (CCNV)                1.0E-08

  COSMO charges included variationally in SCF

       COSMO included at every SCF cycle

  Geometry-dependent empirical factor                         0.00000

  C-Matrix calculated in cspmtx

  In cspmtx, C-Matrix calculated using fitted potential

-------------------------------------------



 -------------------------------------------
  COSMO surface
  Area             =          629.520
  Volume           =         1146.856
  Number of Points =         1494
 -------------------------------------------



 ======================
 RI Hartree-Fock Scheme
 ======================
  
 Fit Set Quality     : GOOD
 Threshold Quality   : GOOD
 Integration Quality : GOOD
 Fit Generation Method : AUTO
 Response Quality    : DEFAULT
 Is Range Separated  :  F
 
 RIHartreeFock Dependency: number of modified vectors:           9
 cosmo_calcen: 0.5 (esolb+esolc) (Hartrees) =   -0.060622

 Solvation energy (screening term,uncorrected) =    -38.041151 kcal/mol

 Solvation energy (dispersion and cavitation terms) =      1.177154 kcal/mol
 Solvation Energy Contributions (Hartrees)
          esola   esolb+esolc
     0.06062243   -0.12124485
 esol last cycle   -0.06062243
  
 Hartree-Fock exchange energy:   -565.335364143475     
 cosmo_calcen: 0.5 (esolb+esolc) (Hartrees) =   -0.060622

 Solvation energy (screening term,uncorrected) =    -38.041156 kcal/mol

 Solvation energy (dispersion and cavitation terms) =      1.177154 kcal/mol
 Solvation Energy Contributions (Hartrees)
          esola   esolb+esolc
     0.06062243   -0.12124487
 esol last cycle   -0.06062243

 Energy gradients wrt nuclear displacements
 ==========================================

     Atom      Cartesian (a.u./angstrom)
                 X         Y         Z
 ----------------------------------------
     1 Pa    0.000318 -0.001639  0.001148
     2 O    -0.000017  0.000684  0.000100
     3 Cl   -0.000090  0.000396 -0.000582
     4 Cl   -0.000159  0.000119  0.000294
     5 H     0.000241  0.000107  0.000062
     6 O     0.000410  0.000414 -0.000079
     7 H    -0.000280 -0.000083 -0.000006
     8 H    -0.000295 -0.000051 -0.000143
     9 H     0.000303 -0.000028  0.000066
    10 O    -0.000290  0.000578 -0.001185
    11 O    -0.000066 -0.000181  0.000018
    12 H    -0.000072  0.000108 -0.000134
    13 H    -0.000052 -0.000265  0.000003
    14 O     0.000239 -0.000325  0.000505
    15 H    -0.000189  0.000165 -0.000067
 ----------------------------------------
 Mulliken charges used for AMS results%charges...

 dE(predicted):    -0.93529E-05, dE(actual):    -0.18142E-04, Trust radius:    0.400000, all in a.u.
 
----------------------------------------------------------------------
Geometry Convergence after Step   9       (Hartree/Angstrom,Angstrom)
----------------------------------------------------------------------
current energy                               -3.90732876 Hartree
energy change                      -0.00001814     0.00001500    F
constrained gradient max            0.00163655     0.00010000    F
constrained gradient rms            0.00043002     0.00006667    F
gradient max                        0.00163655
gradient rms                        0.00043002
cart. step max                      0.01289217     0.00100000    F
cart. step rms                      0.00377035     0.00066667    F
 
 
--------
Geometry
--------
Formula: H7Cl2O5Pa
Atoms
  Index Symbol   x (angstrom)   y (angstrom)   z (angstrom)
      1     Pa    -0.25881417    -0.27826812     0.48192386       adf.R=2.200
      2      O     1.63289038     1.21452756     1.14595210       adf.R=1.517
      3     Cl    -0.73054287     0.92785009    -1.82013579       adf.R=1.725
      4     Cl    -1.23248838     1.86176747     1.88960921       adf.R=1.725
      5      H     2.13447723    -1.75242265    -0.13152567       adf.R=1.350
      6      O    -1.27413327    -2.33658755    -0.59897960       adf.R=1.517
      7      H    -1.29782427    -2.43930126    -1.55705171       adf.R=1.350
      8      H    -1.01691493    -3.19568774    -0.24566833       adf.R=1.350
      9      H     1.54137206     1.81795763     1.89147671       adf.R=1.350
     10      O    -0.16189869    -1.31537260     1.99338794       adf.R=1.517
     11      O     1.48147038    -1.09478308    -0.38662634       adf.R=1.517
     12      H    -3.22760709     0.01353017     1.37997514       adf.R=1.350
     13      H     2.53063800     0.86567313     1.15352306       adf.R=1.350
     14      O    -2.80054723    -0.47080287     0.66481874       adf.R=1.517
     15      H    -3.20609219    -1.34382905     0.62460513       adf.R=1.350
 
Total System Charge             0.00000
Bonding info available!
 
 *** GO1_GOStep10 ***

 SOLVATION
-------------------------------------------

  The Delley construction of COSMO surface surface is calculated

       Division Level for Surface Triangles (NDIV)                  3
       Final Division Level for Triangles (NFDIV)                   1
       Radius of the Solvent (RSOL)                           1.93000 angstr
  Dielectric Constant (EPSL)                                 78.39000

       COSMO equation is solved iteratively-               conjugate-gradient

       Maximun of Iterations for Charges (NCIX)                  1000
       Criterion for Charge convergence (CCNV)                1.0E-08

  COSMO charges included variationally in SCF

       COSMO included at every SCF cycle

  Geometry-dependent empirical factor                         0.00000

  C-Matrix calculated in cspmtx

  In cspmtx, C-Matrix calculated using fitted potential

-------------------------------------------



 -------------------------------------------
  COSMO surface
  Area             =          630.431
  Volume           =         1148.758
  Number of Points =         1495
 -------------------------------------------



 ======================
 RI Hartree-Fock Scheme
 ======================
  
 Fit Set Quality     : GOOD
 Threshold Quality   : GOOD
 Integration Quality : GOOD
 Fit Generation Method : AUTO
 Response Quality    : DEFAULT
 Is Range Separated  :  F
 
 RIHartreeFock Dependency: number of modified vectors:           9
 cosmo_calcen: 0.5 (esolb+esolc) (Hartrees) =   -0.060658

 Solvation energy (screening term,uncorrected) =    -38.063486 kcal/mol

 Solvation energy (dispersion and cavitation terms) =      1.178857 kcal/mol
 Solvation Energy Contributions (Hartrees)
          esola   esolb+esolc
     0.06065802   -0.12131604
 esol last cycle   -0.06065802
  
 Hartree-Fock exchange energy:   -565.336049092528     
 cosmo_calcen: 0.5 (esolb+esolc) (Hartrees) =   -0.060658

 Solvation energy (screening term,uncorrected) =    -38.063490 kcal/mol

 Solvation energy (dispersion and cavitation terms) =      1.178857 kcal/mol
 Solvation Energy Contributions (Hartrees)
          esola   esolb+esolc
     0.06065803   -0.12131605
 esol last cycle   -0.06065803

 Energy gradients wrt nuclear displacements
 ==========================================

     Atom      Cartesian (a.u./angstrom)
                 X         Y         Z
 ----------------------------------------
     1 Pa    0.000211 -0.002384  0.001788
     2 O     0.000295  0.000332  0.000115
     3 Cl   -0.000031  0.000244 -0.000338
     4 Cl   -0.000074  0.000206  0.000257
     5 H     0.000286 -0.000007  0.000025
     6 O     0.000345  0.000459 -0.000148
     7 H    -0.000236 -0.000050 -0.000034
     8 H    -0.000181 -0.000000 -0.000084
     9 H     0.000033 -0.000056  0.000051
    10 O    -0.000109  0.001206 -0.001730
    11 O    -0.000412  0.000279  0.000137
    12 H    -0.000090  0.000069 -0.000026
    13 H    -0.000101 -0.000198 -0.000107
    14 O     0.000228 -0.000218  0.000118
    15 H    -0.000161  0.000117 -0.000023
 ----------------------------------------
 Mulliken charges used for AMS results%charges...

 dE(predicted):    -0.85517E-05, dE(actual):    -0.10320E-04, Trust radius:    0.400000, all in a.u.
 
----------------------------------------------------------------------
Geometry Convergence after Step  10       (Hartree/Angstrom,Angstrom)
----------------------------------------------------------------------
current energy                               -3.90733908 Hartree
energy change                      -0.00001032     0.00001500    T
constrained gradient max            0.00238129     0.00010000    F
constrained gradient rms            0.00057464     0.00006667    F
gradient max                        0.00238129
gradient rms                        0.00057464
cart. step max                      0.00948571     0.00100000    F
cart. step rms                      0.00335179     0.00066667    F
 
 
--------
Geometry
--------
Formula: H7Cl2O5Pa
Atoms
  Index Symbol   x (angstrom)   y (angstrom)   z (angstrom)
      1     Pa    -0.26044853    -0.27681071     0.48244671       adf.R=2.200
      2      O     1.63334107     1.21127071     1.14798740       adf.R=1.517
      3     Cl    -0.73339278     0.92925599    -1.81821111       adf.R=1.725
      4     Cl    -1.23078383     1.86580444     1.88768577       adf.R=1.725
      5      H     2.12715076    -1.75608380    -0.14101138       adf.R=1.350
      6      O    -1.27373677    -2.33786754    -0.59582093       adf.R=1.517
      7      H    -1.28996136    -2.44055737    -1.55410453       adf.R=1.350
      8      H    -1.00917406    -3.19441980    -0.24159862       adf.R=1.350
      9      H     1.53898867     1.81483229     1.89306029       adf.R=1.350
     10      O    -0.16128072    -1.31220466     1.99574290       adf.R=1.517
     11      O     1.47681179    -1.09400223    -0.39124255       adf.R=1.517
     12      H    -3.22773040     0.01185978     1.38061220       adf.R=1.350
     13      H     2.53177135     0.86430608     1.15695517       adf.R=1.350
     14      O    -2.80250016    -0.46831351     0.66151980       adf.R=1.517
     15      H    -3.20507007    -1.34281854     0.62126333       adf.R=1.350
 
Total System Charge             0.00000
Bonding info available!
 
 *** GO1_GOStep11 ***

 SOLVATION
-------------------------------------------

  The Delley construction of COSMO surface surface is calculated

       Division Level for Surface Triangles (NDIV)                  3
       Final Division Level for Triangles (NFDIV)                   1
       Radius of the Solvent (RSOL)                           1.93000 angstr
  Dielectric Constant (EPSL)                                 78.39000

       COSMO equation is solved iteratively-               conjugate-gradient

       Maximun of Iterations for Charges (NCIX)                  1000
       Criterion for Charge convergence (CCNV)                1.0E-08

  COSMO charges included variationally in SCF

       COSMO included at every SCF cycle

  Geometry-dependent empirical factor                         0.00000

  C-Matrix calculated in cspmtx

  In cspmtx, C-Matrix calculated using fitted potential

-------------------------------------------



 -------------------------------------------
  COSMO surface
  Area             =          630.689
  Volume           =         1149.374
  Number of Points =         1494
 -------------------------------------------



 ======================
 RI Hartree-Fock Scheme
 ======================
  
 Fit Set Quality     : GOOD
 Threshold Quality   : GOOD
 Integration Quality : GOOD
 Fit Generation Method : AUTO
 Response Quality    : DEFAULT
 Is Range Separated  :  F
 
 RIHartreeFock Dependency: number of modified vectors:           9
 cosmo_calcen: 0.5 (esolb+esolc) (Hartrees) =   -0.060656

 Solvation energy (screening term,uncorrected) =    -38.062248 kcal/mol

 Solvation energy (dispersion and cavitation terms) =      1.179339 kcal/mol
 Solvation Energy Contributions (Hartrees)
          esola   esolb+esolc
     0.06065605   -0.12131209
 esol last cycle   -0.06065605
  
 Hartree-Fock exchange energy:   -565.335870550609     
 cosmo_calcen: 0.5 (esolb+esolc) (Hartrees) =   -0.060656

 Solvation energy (screening term,uncorrected) =    -38.062242 kcal/mol

 Solvation energy (dispersion and cavitation terms) =      1.179339 kcal/mol
 Solvation Energy Contributions (Hartrees)
          esola   esolb+esolc
     0.06065604   -0.12131208
 esol last cycle   -0.06065604

 Energy gradients wrt nuclear displacements
 ==========================================

     Atom      Cartesian (a.u./angstrom)
                 X         Y         Z
 ----------------------------------------
     1 Pa   -0.000160 -0.001987  0.001185
     2 O     0.000384  0.000117  0.000110
     3 Cl    0.000021  0.000108 -0.000087
     4 Cl    0.000031  0.000210  0.000193
     5 H     0.000179 -0.000020 -0.000022
     6 O     0.000347  0.000502 -0.000138
     7 H    -0.000173 -0.000030 -0.000040
     8 H    -0.000095  0.000009 -0.000086
     9 H    -0.000114 -0.000100  0.000085
    10 O     0.000090  0.000889 -0.001054
    11 O    -0.000382  0.000385  0.000113
    12 H    -0.000030 -0.000005  0.000022
    13 H    -0.000107 -0.000108 -0.000183
    14 O     0.000181 -0.000017 -0.000115
    15 H    -0.000171  0.000047  0.000016
 ----------------------------------------
 Mulliken charges used for AMS results%charges...
 
----------------------------------------------------------------------
Geometry Convergence after Step  11       (Hartree/Angstrom,Angstrom)
----------------------------------------------------------------------
current energy                               -3.90733884 Hartree
energy change                       0.00000024     0.00001500    T
constrained gradient max            0.00198513     0.00010000    F
constrained gradient rms            0.00043340     0.00006667    F
gradient max                        0.00198513
gradient rms                        0.00043340
cart. step max                      0.00691599     0.00100000    F
cart. step rms                      0.00257896     0.00066667    F
 
 
--------
Geometry
--------
Formula: H7Cl2O5Pa
Atoms
  Index Symbol   x (angstrom)   y (angstrom)   z (angstrom)
      1     Pa    -0.26129890    -0.27505639     0.48181222       adf.R=2.200
      2      O     1.63361215     1.20964906     1.14948108       adf.R=1.517
      3     Cl    -0.73556204     0.93125107    -1.81746515       adf.R=1.725
      4     Cl    -1.23007014     1.86813505     1.88622215       adf.R=1.725
      5      H     2.12023477    -1.76077366    -0.14732450       adf.R=1.350
      6      O    -1.27351834    -2.33857230    -0.59353289       adf.R=1.517
      7      H    -1.28373198    -2.44137234    -1.55192967       adf.R=1.350
      8      H    -1.00357636    -3.19310886    -0.23839683       adf.R=1.350
      9      H     1.53705860     1.81403253     1.89360481       adf.R=1.350
     10      O    -0.16172655    -1.31082240     1.99600231       adf.R=1.517
     11      O     1.47358831    -1.09431034    -0.39522469       adf.R=1.517
     12      H    -3.22705776     0.01051305     1.38172284       adf.R=1.350
     13      H     2.53238459     0.86355200     1.16111940       adf.R=1.350
     14      O    -2.80333482    -0.46649310     0.65959519       adf.R=1.517
     15      H    -3.20301655    -1.34237224     0.61959817       adf.R=1.350
 
Total System Charge             0.00000
Bonding info available!
 
 *** GO1_GOStep12 ***

 SOLVATION
-------------------------------------------

  The Delley construction of COSMO surface surface is calculated

       Division Level for Surface Triangles (NDIV)                  3
       Final Division Level for Triangles (NFDIV)                   1
       Radius of the Solvent (RSOL)                           1.93000 angstr
  Dielectric Constant (EPSL)                                 78.39000

       COSMO equation is solved iteratively-               conjugate-gradient

       Maximun of Iterations for Charges (NCIX)                  1000
       Criterion for Charge convergence (CCNV)                1.0E-08

  COSMO charges included variationally in SCF

       COSMO included at every SCF cycle

  Geometry-dependent empirical factor                         0.00000

  C-Matrix calculated in cspmtx

  In cspmtx, C-Matrix calculated using fitted potential

-------------------------------------------



 -------------------------------------------
  COSMO surface
  Area             =          630.579
  Volume           =         1149.391
  Number of Points =         1499
 -------------------------------------------



 ======================
 RI Hartree-Fock Scheme
 ======================
  
 Fit Set Quality     : GOOD
 Threshold Quality   : GOOD
 Integration Quality : GOOD
 Fit Generation Method : AUTO
 Response Quality    : DEFAULT
 Is Range Separated  :  F
 
 RIHartreeFock Dependency: number of modified vectors:           9
 cosmo_calcen: 0.5 (esolb+esolc) (Hartrees) =   -0.060621

 Solvation energy (screening term,uncorrected) =    -38.040176 kcal/mol

 Solvation energy (dispersion and cavitation terms) =      1.179134 kcal/mol
 Solvation Energy Contributions (Hartrees)
          esola   esolb+esolc
     0.06062087   -0.12124175
 esol last cycle   -0.06062087
  
 Hartree-Fock exchange energy:   -565.335298846939     
 cosmo_calcen: 0.5 (esolb+esolc) (Hartrees) =   -0.060621

 Solvation energy (screening term,uncorrected) =    -38.040170 kcal/mol

 Solvation energy (dispersion and cavitation terms) =      1.179134 kcal/mol
 Solvation Energy Contributions (Hartrees)
          esola   esolb+esolc
     0.06062086   -0.12124173
 esol last cycle   -0.06062086

 Energy gradients wrt nuclear displacements
 ==========================================

     Atom      Cartesian (a.u./angstrom)
                 X         Y         Z
 ----------------------------------------
     1 Pa   -0.000454 -0.001100  0.000135
     2 O     0.000251  0.000053  0.000099
     3 Cl    0.000042  0.000033  0.000082
     4 Cl    0.000074  0.000178  0.000142
     5 H     0.000037  0.000030 -0.000073
     6 O     0.000344  0.000497 -0.000054
     7 H    -0.000111 -0.000005 -0.000041
     8 H    -0.000046  0.000002 -0.000119
     9 H    -0.000116 -0.000133  0.000062
    10 O     0.000194  0.000204 -0.000020
    11 O    -0.000174  0.000237  0.000036
    12 H    -0.000006 -0.000033  0.000065
    13 H    -0.000029 -0.000064 -0.000131
    14 O     0.000127  0.000060 -0.000211
    15 H    -0.000135  0.000042  0.000029
 ----------------------------------------
 Mulliken charges used for AMS results%charges...

 dE(predicted):    -0.31709E-05, dE(actual):     0.71022E-05, Trust radius:    0.020000, all in a.u.
 
----------------------------------------------------------------------
Geometry Convergence after Step  12       (Hartree/Angstrom,Angstrom)
----------------------------------------------------------------------
current energy                               -3.90733174 Hartree
energy change                       0.00000710     0.00001500    T
constrained gradient max            0.00109822     0.00010000    F
constrained gradient rms            0.00022312     0.00006667    F
gradient max                        0.00109822
gradient rms                        0.00022312
cart. step max                      0.00379567     0.00100000    F
cart. step rms                      0.00144660     0.00066667    F
 
 
--------
Geometry
--------
Formula: H7Cl2O5Pa
Atoms
  Index Symbol   x (angstrom)   y (angstrom)   z (angstrom)
      1     Pa    -0.26129514    -0.27355111     0.48054891       adf.R=2.200
      2      O     1.63382021     1.20950101     1.15030223       adf.R=1.517
      3     Cl    -0.73659311     0.93296260    -1.81798961       adf.R=1.725
      4     Cl    -1.23037045     1.86860284     1.88554044       adf.R=1.725
      5      H     2.11643910    -1.76423715    -0.14977823       adf.R=1.350
      6      O    -1.27389209    -2.33862321    -0.59248168       adf.R=1.517
      7      H    -1.28071076    -2.44175015    -1.55089563       adf.R=1.350
      8      H    -1.00158793    -3.19205371    -0.23644360       adf.R=1.350
      9      H     1.53619620     1.81483283     1.89354954       adf.R=1.350
     10      O    -0.16301690    -1.31086253     1.99446295       adf.R=1.517
     11      O     1.47233930    -1.09523219    -0.39731662       adf.R=1.517
     12      H    -3.22611331     0.00965860     1.38273113       adf.R=1.350
     13      H     2.53261862     0.86346482     1.16437181       adf.R=1.350
     14      O    -2.80314213    -0.46579883     0.65914638       adf.R=1.517
     15      H    -3.20070665    -1.34266271     0.61953643       adf.R=1.350
 
Total System Charge             0.00000
Bonding info available!
 
 *** GO1_GOStep13 ***

 SOLVATION
-------------------------------------------

  The Delley construction of COSMO surface surface is calculated

       Division Level for Surface Triangles (NDIV)                  3
       Final Division Level for Triangles (NFDIV)                   1
       Radius of the Solvent (RSOL)                           1.93000 angstr
  Dielectric Constant (EPSL)                                 78.39000

       COSMO equation is solved iteratively-               conjugate-gradient

       Maximun of Iterations for Charges (NCIX)                  1000
       Criterion for Charge convergence (CCNV)                1.0E-08

  COSMO charges included variationally in SCF

       COSMO included at every SCF cycle

  Geometry-dependent empirical factor                         0.00000

  C-Matrix calculated in cspmtx

  In cspmtx, C-Matrix calculated using fitted potential

-------------------------------------------



 -------------------------------------------
  COSMO surface
  Area             =          631.393
  Volume           =         1150.988
  Number of Points =         1504
 -------------------------------------------



 ======================
 RI Hartree-Fock Scheme
 ======================
  
 Fit Set Quality     : GOOD
 Threshold Quality   : GOOD
 Integration Quality : GOOD
 Fit Generation Method : AUTO
 Response Quality    : DEFAULT
 Is Range Separated  :  F
 
 RIHartreeFock Dependency: number of modified vectors:           9
 cosmo_calcen: 0.5 (esolb+esolc) (Hartrees) =   -0.060570

 Solvation energy (screening term,uncorrected) =    -38.008550 kcal/mol

 Solvation energy (dispersion and cavitation terms) =      1.180655 kcal/mol
 Solvation Energy Contributions (Hartrees)
          esola   esolb+esolc
     0.06057047   -0.12114095
 esol last cycle   -0.06057047
  
 Hartree-Fock exchange energy:   -565.334853479192     
 cosmo_calcen: 0.5 (esolb+esolc) (Hartrees) =   -0.060570

 Solvation energy (screening term,uncorrected) =    -38.008556 kcal/mol

 Solvation energy (dispersion and cavitation terms) =      1.180655 kcal/mol
 Solvation Energy Contributions (Hartrees)
          esola   esolb+esolc
     0.06057048   -0.12114096
 esol last cycle   -0.06057048

 Energy gradients wrt nuclear displacements
 ==========================================

     Atom      Cartesian (a.u./angstrom)
                 X         Y         Z
 ----------------------------------------
     1 Pa   -0.000459 -0.000379 -0.000526
     2 O     0.000107  0.000042  0.000017
     3 Cl    0.000028  0.000011  0.000143
     4 Cl    0.000064  0.000107  0.000114
     5 H    -0.000034  0.000067 -0.000101
     6 O     0.000262  0.000478  0.000005
     7 H    -0.000054  0.000014 -0.000045
     8 H    -0.000041 -0.000014 -0.000133
     9 H    -0.000039 -0.000120  0.000084
    10 O     0.000171 -0.000285  0.000573
    11 O    -0.000025  0.000026  0.000003
    12 H     0.000010 -0.000021  0.000058
    13 H     0.000016 -0.000024 -0.000050
    14 O     0.000089  0.000061 -0.000157
    15 H    -0.000097  0.000038  0.000017
 ----------------------------------------
 Mulliken charges used for AMS results%charges...

 dE(predicted):    -0.19126E-05, dE(actual):     0.63228E-05, Trust radius:    0.020000, all in a.u.
 
----------------------------------------------------------------------
Geometry Convergence after Step  13       (Hartree/Angstrom,Angstrom)
----------------------------------------------------------------------
current energy                               -3.90732542 Hartree
energy change                       0.00000632     0.00001500    T
constrained gradient max            0.00059940     0.00010000    F
constrained gradient rms            0.00018200     0.00006667    F
gradient max                        0.00059940
gradient rms                        0.00018200
cart. step max                      0.00356361     0.00100000    F
cart. step rms                      0.00139406     0.00066667    F
 
 
--------
Geometry
--------
Formula: H7Cl2O5Pa
Atoms
  Index Symbol   x (angstrom)   y (angstrom)   z (angstrom)
      1     Pa    -0.26107076    -0.27179958     0.47884341       adf.R=2.200
      2      O     1.63422250     1.20946839     1.15121218       adf.R=1.517
      3     Cl    -0.73725317     0.93496551    -1.81921901       adf.R=1.725
      4     Cl    -1.23120160     1.86867217     1.88492060       adf.R=1.725
      5      H     2.11370412    -1.76696618    -0.15157316       adf.R=1.350
      6      O    -1.27470698    -2.33862716    -0.59148939       adf.R=1.517
      7      H    -1.27879493    -2.44235656    -1.54986909       adf.R=1.350
      8      H    -1.00061924    -3.19097022    -0.23420727       adf.R=1.350
      9      H     1.53576529     1.81596241     1.89343214       adf.R=1.350
     10      O    -0.16484746    -1.31096030     1.99176523       adf.R=1.517
     11      O     1.47165801    -1.09601290    -0.39916380       adf.R=1.517
     12      H    -3.22512621     0.00864638     1.38381535       adf.R=1.350
     13      H     2.53285961     0.86303058     1.16793542       adf.R=1.350
     14      O    -2.80268098    -0.46544134     0.65904584       adf.R=1.517
     15      H    -3.19792326    -1.34336007     0.61983602       adf.R=1.350
 
Total System Charge             0.00000
Bonding info available!
 
 *** GO1_GOStep14 ***

 SOLVATION
-------------------------------------------

  The Delley construction of COSMO surface surface is calculated

       Division Level for Surface Triangles (NDIV)                  3
       Final Division Level for Triangles (NFDIV)                   1
       Radius of the Solvent (RSOL)                           1.93000 angstr
  Dielectric Constant (EPSL)                                 78.39000

       COSMO equation is solved iteratively-               conjugate-gradient

       Maximun of Iterations for Charges (NCIX)                  1000
       Criterion for Charge convergence (CCNV)                1.0E-08

  COSMO charges included variationally in SCF

       COSMO included at every SCF cycle

  Geometry-dependent empirical factor                         0.00000

  C-Matrix calculated in cspmtx

  In cspmtx, C-Matrix calculated using fitted potential

-------------------------------------------



 -------------------------------------------
  COSMO surface
  Area             =          631.678
  Volume           =         1151.302
  Number of Points =         1504
 -------------------------------------------



 ======================
 RI Hartree-Fock Scheme
 ======================
  
 Fit Set Quality     : GOOD
 Threshold Quality   : GOOD
 Integration Quality : GOOD
 Fit Generation Method : AUTO
 Response Quality    : DEFAULT
 Is Range Separated  :  F
 
 RIHartreeFock Dependency: number of modified vectors:           9
 cosmo_calcen: 0.5 (esolb+esolc) (Hartrees) =   -0.060493

 Solvation energy (screening term,uncorrected) =    -37.960205 kcal/mol

 Solvation energy (dispersion and cavitation terms) =      1.181189 kcal/mol
 Solvation Energy Contributions (Hartrees)
          esola   esolb+esolc
     0.06049343   -0.12098686
 esol last cycle   -0.06049343
  
 Hartree-Fock exchange energy:   -565.334672254408     
 cosmo_calcen: 0.5 (esolb+esolc) (Hartrees) =   -0.060493

 Solvation energy (screening term,uncorrected) =    -37.960210 kcal/mol

 Solvation energy (dispersion and cavitation terms) =      1.181189 kcal/mol
 Solvation Energy Contributions (Hartrees)
          esola   esolb+esolc
     0.06049344   -0.12098688
 esol last cycle   -0.06049344

 Energy gradients wrt nuclear displacements
 ==========================================

     Atom      Cartesian (a.u./angstrom)
                 X         Y         Z
 ----------------------------------------
     1 Pa   -0.000396  0.000052 -0.000741
     2 O    -0.000066 -0.000002 -0.000042
     3 Cl    0.000013  0.000027  0.000157
     4 Cl    0.000022  0.000022  0.000091
     5 H    -0.000048  0.000062 -0.000112
     6 O     0.000216  0.000344  0.000091
     7 H    -0.000031  0.000091 -0.000064
     8 H    -0.000043 -0.000014 -0.000118
     9 H     0.000071 -0.000070  0.000098
    10 O     0.000065 -0.000453  0.000667
    11 O     0.000110 -0.000135 -0.000047
    12 H     0.000026 -0.000004  0.000039
[...]
    15     H       0.001380   0.003037   0.000316
 
 Mode:    43      Frequency (cm-1):     3876.0939     Intensity (km/mol):      241.5535
 Index  Atom      ---- Displacements (x/y/z) ----
     1    Pa      -0.000001  -0.000002  -0.000010
     2     O       0.000439  -0.000341  -0.000208
     3    Cl      -0.000005   0.000018  -0.000013
     4    Cl      -0.000002  -0.000002   0.000008
     5     H      -0.022018   0.022862  -0.008406
     6     O      -0.010054   0.029119  -0.063505
     7     H      -0.009330   0.088735   0.773270
     8     H       0.169468  -0.550637   0.236525
     9     H      -0.000418   0.002734   0.003638
    10     O       0.000002  -0.000043   0.000037
    11     O       0.001398  -0.001413   0.000491
    12     H      -0.003447   0.003769   0.006133
    13     H      -0.006660   0.002521  -0.000166
    14     O       0.000070  -0.000527  -0.000379
    15     H       0.002221   0.004710   0.000200
 
 Mode:    44      Frequency (cm-1):     3886.9652     Intensity (km/mol):      201.2400
 Index  Atom      ---- Displacements (x/y/z) ----
     1    Pa       0.000001  -0.000000   0.000001
     2     O       0.005559  -0.004987  -0.003678
     3    Cl      -0.000000  -0.000002   0.000002
     4    Cl      -0.000005   0.000035   0.000030
     5     H      -0.002385   0.002379  -0.000966
     6     O      -0.000016   0.000142  -0.000585
     7     H       0.000003   0.001098   0.008456
     8     H       0.000226  -0.002127   0.001130
     9     H      -0.007190   0.047946   0.059368
    10     O       0.000000  -0.000008  -0.000005
    11     O       0.000136  -0.000151   0.000063
    12     H       0.309693  -0.332665  -0.522511
    13     H      -0.081357   0.031615  -0.000934
    14     O      -0.001230   0.061468   0.034959
    15     H      -0.289701  -0.645497  -0.034000
 
 Mode:    45      Frequency (cm-1):     3888.1310     Intensity (km/mol):      290.8760
 Index  Atom      ---- Displacements (x/y/z) ----
     1    Pa       0.000006  -0.000003  -0.000001
     2     O       0.047318  -0.042604  -0.031378
     3    Cl      -0.000003   0.000008  -0.000005
     4    Cl       0.000027  -0.000023  -0.000029
     5     H      -0.010326   0.010195  -0.004174
     6     O       0.000108  -0.000350   0.000600
     7     H       0.000017  -0.000757  -0.006934
     8     H      -0.001869   0.006257  -0.002821
     9     H      -0.060683   0.408758   0.508142
    10     O      -0.000010  -0.000013   0.000027
    11     O       0.000647  -0.000727   0.000225
    12     H      -0.036168   0.039000   0.061358
    13     H      -0.692239   0.269844  -0.008790
    14     O       0.000140  -0.007209  -0.004091
    15     H       0.034010   0.075725   0.004061

 Vibrational polarizability tensor (a.u.):
                  X                   Y                   Z
 X           12304.93253          2895.94900         -9033.54854
 Y            2895.94900          3317.99316         -2750.28030
 Z           -9033.54854         -2750.28030         11761.65609

 Isotropic =      9128.2    atomic units

PES point character: Geometry corresponds to a local minimum on the PES.




 ============================
 Statistical Thermal Analysis  ***  ideal gas assumed  ***
 ============================
  
 Pressure:                  1.000000 atm.
 Temperature:             298.150000 K



 Moments of Inertia [amu*bohr^2] and principal axis
 ==================================================

        2063.9759       2452.9136       2518.4295
 ------------------------------------------------
           0.0879         -0.9164          0.3905
          -0.7551          0.1944          0.6261
          -0.6497         -0.3499         -0.6749


 The rotational contribution to the molecular entropy includes
 a term, dependent on the symmetry number sigma. The results 
 reported below were computed using sigma = 1, determined from
 the point group symmetry of the input geometry (NOSYM). 
 If this is not the correct symmetry, try symmetrizing the molecule before
 running the calculation (note: linear molecules should be aligned along one
 of the Cartesian axes).
 Contributions from frequencies below 20 1/cm are not included in vibrational sums.
 Their contributions, if any, are reported separately.


     Temp                                                        Transl      Rotat     Vibrat     Total
     ----                                                        ------      -----     ------     -----

     298.15   Entropy (cal/mol-K):                               43.760     30.923     61.887    136.569
              Nuclear Internal Energy (kcal/mol):                 0.889      0.889     65.524     67.302
              Constant Volume Heat Capacity (cal/mol-K):          2.981      2.981     49.029     54.990
          (c) Constant Volume Heat Capacity (cal/mol-K):          2.981      2.981     43.840     49.802

       Summary of energy terms
                                                   hartree              eV         kcal/mol           kJ/mol
                                      --------------------     -----------       ----------      -----------
      Energy from Engine:               -3.907278607356710       -106.3225         -2451.85        -10258.56
      Nuclear Internal Energy:           0.107252249987417          2.9185            67.30           281.59
  (c) Nuclear Internal Energy:           0.104574361834672          2.8456            65.62           274.56
      Internal Energy U:                -3.800026357369293       -103.4040         -2384.55         -9976.97
      pV/n = RT:                         0.000944186013486          0.0257             0.59             2.48
      Enthalpy H:                       -3.799082171355807       -103.3783         -2383.96         -9974.49
      -T*S:                             -0.064888471288579         -1.7657           -40.72          -170.36
  (c) -T*S:                             -0.062503426809787         -1.7008           -39.22          -164.10
      Gibbs free energy:                -3.863970642644386       -105.1440         -2424.68        -10144.85
 
 
 
  (c) The properties marked with this symbol have been corrected using 'low vibrational frequency free rotor
      interpolation corrections'. For those terms all positive frequencies are used (also ones below 20 1/cm),
      but the contribution to the partition function of small vibrational frequencies is modified as described
      in the following paper:
      S. Grimme, 'Supramolecular Binding Thermodynamics by Dispersion-Corrected Density Functional Theory'
      (Chem. Eur. J. 2012, 18, 9955-9964)
      Configuration: Dampener Frequency          :   100.000 1/cm
                     Dampener Alpha              :     4.000
                     Averaging Moment of Inertia : 1.000E-44 kg m2

--------------
Atomic charges
--------------
  Index   Atom    Charge
      1     Pa    2.2040
      2      O   -0.4000
      3     Cl   -0.4884
      4     Cl   -0.5969
      5      H    0.1330
      6      O   -0.4453
      7      H    0.2580
      8      H    0.2705
      9      H    0.2457
     10      O   -0.8205
     11      O   -0.6967
     12      H    0.2531
     13      H    0.2513
     14      O   -0.4204
     15      H    0.2524


Dipole moment vector    (Debye):     1.22431375   -8.76010253   -0.10152586
              magnitude (Debye):     8.84582659


-----------------------
Molecular orbitals info
-----------------------
n orbitals:              410
n spin:                    1

Note: only printing virtual orbitals with
      energy smaller than HOMO + 100. eV

HOMO (eV):              -8.2547
LUMO (eV):              -1.8191
HOMO-LUMO gap (eV):      6.4356

   Index   Energy (eV)    Occupation
     272       90.5811         0.000       
     271       89.5340         0.000       
     270       89.1186         0.000       
     269       87.2494         0.000       
     268       87.2038         0.000       
     267       85.8514         0.000       
     266       85.5255         0.000       
     265       85.1988         0.000       
     264       84.7890         0.000       
     263       83.7698         0.000       
     262       83.2536         0.000       
     261       82.5881         0.000       
     260       81.8833         0.000       
     259       80.6735         0.000       
     258       79.8117         0.000       
     257       78.7682         0.000       
     256       77.4100         0.000       
     255       76.3303         0.000       
     254       76.1249         0.000       
     253       75.4105         0.000       
     252       74.8975         0.000       
     251       74.1430         0.000       
     250       73.6538         0.000       
     249       73.1367         0.000       
     248       72.5986         0.000       
     247       71.4745         0.000       
     246       70.8281         0.000       
     245       70.5381         0.000       
     244       70.0335         0.000       
     243       69.7430         0.000       
     242       68.6783         0.000       
     241       68.1652         0.000       
     240       67.0531         0.000       
     239       66.9867         0.000       
     238       64.6238         0.000       
     237       63.8802         0.000       
     236       63.0420         0.000       
     235       62.9784         0.000       
     234       61.3744         0.000       
     233       60.0279         0.000       
     232       59.8057         0.000       
     231       57.7182         0.000       
     230       56.8008         0.000       
     229       56.6673         0.000       
     228       55.7033         0.000       
     227       55.2116         0.000       
     226       54.4982         0.000       
     225       53.8422         0.000       
     224       53.2308         0.000       
     223       52.9250         0.000       
     222       51.3856         0.000       
     221       50.8340         0.000       
     220       50.2961         0.000       
     219       48.6020         0.000       
     218       47.8673         0.000       
     217       47.3792         0.000       
     216       46.8834         0.000       
     215       45.7484         0.000       
     214       44.6537         0.000       
     213       43.5508         0.000       
     212       43.3225         0.000       
     211       42.6577         0.000       
     210       42.1607         0.000       
     209       41.9861         0.000       
     208       41.3103         0.000       
     207       40.6441         0.000       
     206       40.1488         0.000       
     205       39.8540         0.000       
     204       39.5271         0.000       
     203       39.1630         0.000       
     202       38.8596         0.000       
     201       38.5494         0.000       
     200       38.4299         0.000       
     199       38.1490         0.000       
     198       37.8011         0.000       
     197       37.4874         0.000       
     196       37.2971         0.000       
     195       37.1771         0.000       
     194       36.9373         0.000       
     193       36.6863         0.000       
     192       36.2055         0.000       
     191       36.0587         0.000       
     190       35.8424         0.000       
     189       35.7547         0.000       
     188       35.5973         0.000       
     187       35.3823         0.000       
     186       35.2271         0.000       
     185       34.5632         0.000       
     184       34.0175         0.000       
     183       33.7454         0.000       
     182       33.2166         0.000       
     181       33.0792         0.000       
     180       32.6491         0.000       
     179       31.3554         0.000       
     178       30.8928         0.000       
     177       29.8032         0.000       
     176       29.6447         0.000       
     175       29.1971         0.000       
     174       28.7793         0.000       
     173       27.5168         0.000       
     172       26.1600         0.000       
     171       25.7371         0.000       
     170       24.8890         0.000       
     169       24.6179         0.000       
     168       24.3712         0.000       
     167       23.8854         0.000       
     166       22.7955         0.000       
     165       22.1920         0.000       
     164       22.1114         0.000       
     163       21.4186         0.000       
     162       21.0671         0.000       
     161       20.4366         0.000       
     160       19.8351         0.000       
     159       19.4926         0.000       
     158       19.0683         0.000       
     157       18.7165         0.000       
     156       18.0314         0.000       
     155       17.5719         0.000       
     154       17.5470         0.000       
     153       16.9816         0.000       
     152       16.6936         0.000       
     151       16.5237         0.000       
     150       16.2502         0.000       
     149       16.0676         0.000       
     148       15.9992         0.000       
     147       15.7449         0.000       
     146       15.4447         0.000       
     145       15.0826         0.000       
     144       14.7599         0.000       
     143       14.7136         0.000       
     142       14.5816         0.000       
     141       14.2910         0.000       
     140       14.1388         0.000       
     139       13.7481         0.000       
     138       13.4968         0.000       
     137       13.3708         0.000       
     136       12.9494         0.000       
     135       12.6958         0.000       
     134       12.5936         0.000       
     133       11.9508         0.000       
     132       11.8418         0.000       
     131       11.2432         0.000       
     130       10.5775         0.000       
     129       10.3881         0.000       
     128       10.0712         0.000       
     127        9.8898         0.000       
     126        9.6655         0.000       
     125        9.4868         0.000       
     124        9.4317         0.000       
     123        9.2406         0.000       
     122        9.1286         0.000       
     121        8.6617         0.000       
     120        8.4381         0.000       
     119        7.9344         0.000       
     118        7.6001         0.000       
     117        7.1990         0.000       
     116        7.0269         0.000       
     115        6.8283         0.000       
     114        5.7980         0.000       
     113        5.5242         0.000       
     112        4.7790         0.000       
     111        4.6359         0.000       
     110        4.3206         0.000       
     109        4.0711         0.000       
     108        3.8672         0.000       
     107        3.4468         0.000       
     106        2.6628         0.000       
     105        2.5542         0.000       
     104        2.4665         0.000       
     103        2.1267         0.000       
     102        2.0776         0.000       
     101        2.0141         0.000       
     100        1.8913         0.000       
      99        1.7124         0.000       
      98        1.4921         0.000       
      97        1.2570         0.000       
      96        0.7353         0.000       
      95        0.4877         0.000       
      94       -0.3368         0.000       
      93       -0.8964         0.000       
      92       -1.3162         0.000       
      91       -1.3938         0.000       
      90       -1.5101         0.000       
      89       -1.7062         0.000       
      88       -1.7913         0.000       
      87       -1.8191         0.000 < LUMO
      86       -8.2547         2.000 < HOMO
      85       -8.4665         2.000       
      84       -8.6005         2.000       
      83       -8.7161         2.000       
      82       -8.9585         2.000       
      81       -9.0663         2.000       
      80       -9.3696         2.000       
      79       -9.5316         2.000       
      78       -9.7893         2.000       
      77      -10.0067         2.000       
      76      -10.3510         2.000       
      75      -10.6703         2.000       
      74      -10.8602         2.000       
      73      -10.9705         2.000       
      72      -12.6806         2.000       
      71      -12.8152         2.000       
      70      -13.4879         2.000       
      69      -13.6646         2.000       
      68      -16.2362         2.000       
      67      -16.2990         2.000       
      66      -16.3568         2.000       
      65      -20.7296         2.000       
      64      -21.4096         2.000       
      63      -22.6006         2.000       
      62      -24.4996         2.000       
      61      -25.4550         2.000       
      60      -28.3096         2.000       
      59      -29.6282         2.000       
      58      -29.7068         2.000       
      57      -29.8530         2.000       
      56      -30.0356         2.000       
      55      -50.3086         2.000       
      54     -100.2011         2.000       
      53     -100.2376         2.000       
      52     -100.2448         2.000       
      51     -100.3264         2.000       
      50     -100.3299         2.000       
      49     -196.0987         2.000       
      48     -196.1021         2.000       
      47     -196.1294         2.000       
      46     -196.5092         2.000       
      45     -196.5190         2.000       
      44     -196.5456         2.000       
      43     -207.3589         2.000       
      42     -207.5903         2.000       
      41     -207.6095         2.000       
      40     -259.6607         2.000       
      39     -260.0763         2.000       
      38     -306.0429         2.000       
      37     -361.2908         2.000       
      36     -361.3091         2.000       
      35     -361.3505         2.000       
      34     -361.4554         2.000       
      33     -361.4557         2.000       
      32     -361.5670         2.000       
      31     -361.5693         2.000       
      30     -522.5693         2.000       
      29     -522.7421         2.000       
      28     -524.3660         2.000       
      27     -524.5105         2.000       
      26     -524.5688         2.000       
      25     -713.1125         2.000       
      24     -713.2369         2.000       
      23     -713.2797         2.000       
      22     -713.4166         2.000       
      21     -713.4232         2.000       
      20    -1041.4034         2.000       
      19    -1041.6498         2.000       
      18    -1041.7210         2.000       
      17    -1359.7700         2.000       
      16    -2775.8433         2.000       
      15    -2776.2584         2.000       
      14    -3484.9858         2.000       
      13    -3485.0325         2.000       
      12    -3485.0498         2.000       
      11    -3485.1145         2.000       
      10    -3485.1170         2.000       
       9    -4347.2051         2.000       
       8    -4347.3438         2.000       
       7    -4347.3806         2.000       
       6    -5318.3699         2.000       
       5   -17561.3041         2.000       
       4   -17561.3253         2.000       
       3   -17561.3278         2.000       
       2   -21037.1192         2.000       
       1  -112698.8996         2.000       

Final PES point is a local minimum. Geometry optimization successful!


AMS application finished. Exiting.
NORMAL TERMINATION
     Total cpu time:   55737.63
  Total system time:     960.05
 Total elapsed time:   56729.59
