

 Parallel Execution: Process Information
 ==============================================================================
 Rank   Node Name                              NodeID   MyNodeRank  NodeMaster
    0   u-0-7.local                               0          0          0
    1   u-0-7.local                               0          1         -1
    2   u-0-7.local                               0          2         -1
    3   u-0-7.local                               0          3         -1
    4   u-0-7.local                               1          0          1
    5   u-0-7.local                               1          1         -1
    6   u-0-7.local                               1          2         -1
    7   u-0-7.local                               1          3         -1
    8   u-0-7.local                               2          0          2
    9   u-0-7.local                               2          1         -1
   10   u-0-7.local                               2          2         -1
   11   u-0-7.local                               2          3         -1
   12   u-0-7.local                               3          0          3
   13   u-0-7.local                               3          1         -1
   14   u-0-7.local                               3          2         -1
   15   u-0-7.local                               3          3         -1
 ==============================================================================


May use up to 31228MB of RAM as shared memory on node 0
May use up to 31250MB of RAM as shared memory on node 1
May use up to 31250MB of RAM as shared memory on node 2
May use up to 31250MB of RAM as shared memory on node 3

 *******************************************************************************
 *                                                                             *
 *  --------------------------------                                           *
 *   Amsterdam Modeling Suite (AMS)              2023.104                      *
 *  --------------------------------                                           *
 *                                               r115785 2023-10-06            *
 *                                                                             *
 *                                                                             *
 *                              =================                              *
 *                              |               |                              *
 *                              |     A M S     |                              *
 *                              |               |                              *
 *                              =================                              *
 *                                                                             *
 *                                                                             *
 *   Online information and documentation:  https://www.scm.com/support/       *
 *   E-mail:  support@scm.com   info@scm.com                                   *
 *                                                                             *
 *   Scientific publications using AMS results must be properly referenced     *
 *   See the User Manuals (or the web site) for recommended citations          *
 *   The terms and conditions of the End User License Agreement apply to       *
 *   the use of AMS, https://www.scm.com/license-terms/                        *
 *                                                                             *
 **********************  x86_64_linux_intel / intelmpi  ************************
 
 Licensed to: Dr. Val?rie Vallet / Laboratoire PhLAM UMR 8523 / Villeneuve d'Ascq Cedex / FRANCE 2024-02-19 16:59:55
 SCM User ID: u10325
  
 AMS 2023.104  RunTime: Jun18-2024 19:32:28  ShM Nodes: 4  Procs: 16

 AMS jobname: pao_oh_2cl_3h2o.SR.pbe0.tz2p.opt-freq-solvation
 AMS jobid  : 309232275

 Start   directory: /home/shaaban/ams/PhD/geometries-exafs/pao_oh_cl2_3h2o/PBE0/
 Results directory: /home/shaaban/ams/PhD/geometries-exafs/pao_oh_cl2_3h2o/PBE0/pao_oh_2cl_3h2o.SR.pbe0.tz2p.opt-freq-solvation.results/
 Scratch directory: /state/partition2/shaaban/1020964.phlam-s-sakura/amstmp_pao_oh_2cl_3h2o.SR.pbe0.tz2p.opt-freq-solvation_kid0.309232275/


 Communication costs MPI_COMM_WORLD:     -1.647 usec per message,   0.0448 usec per 8-byte item
 Communication costs for intra-node:      0.286 usec per message,   0.0086 usec per 8-byte item

 RNG seed: -2128430225 -297642765 -2077385595 343931213 -1484235744 1202658968 1958080675 1161494776



                     *************************************************************************
                     *  ADF 2023.104  RunTime: Jun18-2024 19:32:29  ShM Nodes: 4  Procs: 16  *
                     *************************************************************************
  

       ***************************
       *  GEOMETRY OPTIMIZATION  *
       ***************************

Optimization Method                    Quasi Newton
Optimization Coordinates               Delocalized Coordinates
Optimize lattice                       F
 
 ------------------------------------------------------
 Convergence criteria (Hartree,Angstrom)
 ------------------------------------------------------
 Maximum gradient               0.000100000000
 Maximum rms gradient           0.000066666667
 Maximum step allowed           0.001000000000
 Maximum rms step allowed       0.000666666667
 Maximum energy change allowe   0.000015000000
 Maximum stress energy allowe   0.000500000000
 
Initial model Hessian                  Automatic Hessian
 
------------------------------------
Quasi-Newton Optimizer Parameters
------------------------------------
Hessian Update Method                  BFGS
Maximum number of steps                  250
First GDIIS cycle                          0
Maximum GDIIS vectors                      0
Trust radius (bohr)                        0.200000
Trust radius varies                        T
Constraints converged at all steps         T
Use projector                              T
 
 Rigid motions settings for: old optimizer
 Atomic rotations (x,y,z):     T T T
 Atomic translations (x,y,z):  T T T
 Tolerance:                   1.000000000000000E-006
 
--------
Geometry
--------
Formula: H7Cl2O5Pa
Atoms
  Index Symbol   x (angstrom)   y (angstrom)   z (angstrom)
      1     Pa    -0.29948983    -0.25460070     0.52822015       adf.R=2.200
      2      O     1.65497901     1.30801051     1.03640519       adf.R=1.517
      3      O    -0.68036487     0.75620211    -1.25362548       adf.R=1.517
      4     Cl    -1.24641626     1.86620245     2.02289175       adf.R=1.725
      5      H    -0.10144962     0.91446855    -2.01964424       adf.R=1.350
      6      O    -1.26153295    -2.33647128    -0.60452160       adf.R=1.517
      7      H    -1.25036660    -2.37731295    -1.57693540       adf.R=1.350
      8      H    -0.91005898    -3.19380787    -0.30633160       adf.R=1.350
      9      H     1.56899321     1.83597765     1.84912034       adf.R=1.350
     10      O    -0.09289921    -1.30111870     2.03558673       adf.R=1.517
     11     Cl     1.95862732    -1.29154115    -0.64293960       adf.R=1.725
     12      H    -3.28404932    -0.03806322     1.39800830       adf.R=1.350
     13      H     2.53619876     0.89592045     1.05800458       adf.R=1.350
     14      O    -2.86671821    -0.45379158     0.62395059       adf.R=1.517
     15      H    -3.22139492    -1.35817311     0.57077971       adf.R=1.350
 
Total System Charge             0.00000
Bonding info available!
 
 
----------------
ADF Engine Input
----------------
 
 Basis
 Type TZ2P
 Core None
 End
 XC
 Hybrid PBE0
 End
 Solvation
 Surf Delley
 Solv name=Water cav0=0.0 cav1=0.0067639
 Charged method=CONJ
 C-Mat POT
 SCF VAR ALL
 CSMRSP
 End
 NumericalQuality Good
 

 Title: *** (NO TITLE) ***

 Using automatic Hessian for delocalized coordinates.
 *** GO1_GOStep1 ***

 SOLVATION
-------------------------------------------

  The Delley construction of COSMO surface surface is calculated

       Division Level for Surface Triangles (NDIV)                  3
       Final Division Level for Triangles (NFDIV)                   1
       Radius of the Solvent (RSOL)                           1.93000 angstr
  Dielectric Constant (EPSL)                                 78.39000

       COSMO equation is solved iteratively-               conjugate-gradient

       Maximun of Iterations for Charges (NCIX)                  1000
       Criterion for Charge convergence (CCNV)                1.0E-08

  COSMO charges included variationally in SCF

       COSMO included at every SCF cycle

  Geometry-dependent empirical factor                         0.00000

  C-Matrix calculated in cspmtx

  In cspmtx, C-Matrix calculated using fitted potential

-------------------------------------------



 -------------------------------------------
  COSMO surface
  Area             =          632.909
  Volume           =         1161.447
  Number of Points =         1523
 -------------------------------------------



 ======================
 RI Hartree-Fock Scheme
 ======================
  
 Fit Set Quality     : GOOD
 Threshold Quality   : GOOD
 Integration Quality : GOOD
 Fit Generation Method : AUTO
 Response Quality    : DEFAULT
 Is Range Separated  :  F
 
 RIHartreeFock Dependency: number of modified vectors:           9
 cosmo_calcen: 0.5 (esolb+esolc) (Hartrees) =   -0.058600

 Solvation energy (screening term,uncorrected) =    -36.772020 kcal/mol

 Solvation energy (dispersion and cavitation terms) =      1.183491 kcal/mol
 Solvation Energy Contributions (Hartrees)
          esola   esolb+esolc
     0.05859994   -0.11719987
 esol last cycle   -0.05859994
  
 Hartree-Fock exchange energy:   -565.279563886989     
 cosmo_calcen: 0.5 (esolb+esolc) (Hartrees) =   -0.058600

 Solvation energy (screening term,uncorrected) =    -36.771990 kcal/mol

 Solvation energy (dispersion and cavitation terms) =      1.183491 kcal/mol
 Solvation Energy Contributions (Hartrees)
          esola   esolb+esolc
     0.05859989   -0.11719978
 esol last cycle   -0.05859989

 Energy gradients wrt nuclear displacements
 ==========================================

     Atom      Cartesian (a.u./angstrom)
                 X         Y         Z
 ----------------------------------------
     1 Pa    0.000331  0.005686 -0.007672
     2 O    -0.006552  0.004543 -0.013499
     3 O    -0.014719  0.009848 -0.008426
     4 Cl   -0.003682  0.008776  0.006282
     5 H     0.009074  0.001759 -0.010845
     6 O    -0.011254  0.008845  0.008468
     7 H     0.001143 -0.000691 -0.016061
     8 H     0.006451 -0.014075  0.004410
     9 H    -0.001057  0.007446  0.013031
    10 O     0.004083 -0.020238  0.029701
    11 Cl    0.010096 -0.004519 -0.004845
    12 H    -0.006143  0.005856  0.012510
    13 H     0.013861 -0.006906  0.001006
    14 O     0.003731  0.008257 -0.013675
    15 H    -0.005363 -0.014588 -0.000384
 ----------------------------------------
 Mulliken charges used for AMS results%charges...
 
----------------------------------------------------------------------
Geometry Convergence after Step   1       (Hartree/Angstrom,Angstrom)
----------------------------------------------------------------------
current energy                               -3.91585349 Hartree
energy change                      -3.91585349     0.00001500    F
constrained gradient max            0.02969702     0.00010000    F
constrained gradient rms            0.01001230     0.00006667    F
gradient max                        0.02969702
gradient rms                        0.01001230
cart. step max                      0.01839716     0.00100000    F
cart. step rms                      0.00623252     0.00066667    F
 
 
--------
Geometry
--------
Formula: H7Cl2O5Pa
Atoms
  Index Symbol   x (angstrom)   y (angstrom)   z (angstrom)
      1     Pa    -0.30001950    -0.25499914     0.52458032       adf.R=2.200
      2      O     1.64907873     1.30374590     1.04075779       adf.R=1.517
      3      O    -0.67192221     0.74852522    -1.24980948       adf.R=1.517
      4     Cl    -1.24794230     1.86083123     2.01321501       adf.R=1.725
      5      H    -0.09686625     0.90677731    -2.00935085       adf.R=1.350
      6      O    -1.25605245    -2.33428919    -0.60755068       adf.R=1.517
      7      H    -1.24948184    -2.37627854    -1.57157266       adf.R=1.350
      8      H    -0.91199224    -3.18526406    -0.30971428       adf.R=1.350
      9      H     1.56174675     1.83004656     1.84504207       adf.R=1.350
     10      O    -0.09439948    -1.29420541     2.01718957       adf.R=1.517
     11     Cl     1.95142999    -1.28904879    -0.64534990       adf.R=1.725
     12      H    -3.27535970    -0.03824904     1.39866956       adf.R=1.350
     13      H     2.52457194     0.89837715     1.06090171       adf.R=1.350
     14      O    -2.86200792    -0.45420319     0.63246449       adf.R=1.517
     15      H    -3.21672600    -1.34986484     0.57949675       adf.R=1.350
 
Total System Charge             0.00000
Bonding info available!
 
 *** GO1_GOStep2 ***

 SOLVATION
-------------------------------------------

  The Delley construction of COSMO surface surface is calculated

       Division Level for Surface Triangles (NDIV)                  3
       Final Division Level for Triangles (NFDIV)                   1
       Radius of the Solvent (RSOL)                           1.93000 angstr
  Dielectric Constant (EPSL)                                 78.39000

       COSMO equation is solved iteratively-               conjugate-gradient

       Maximun of Iterations for Charges (NCIX)                  1000
       Criterion for Charge convergence (CCNV)                1.0E-08

  COSMO charges included variationally in SCF

       COSMO included at every SCF cycle

  Geometry-dependent empirical factor                         0.00000

  C-Matrix calculated in cspmtx

  In cspmtx, C-Matrix calculated using fitted potential

-------------------------------------------



 -------------------------------------------
  COSMO surface
  Area             =          630.680
  Volume           =         1156.290
  Number of Points =         1521
 -------------------------------------------



 ======================
 RI Hartree-Fock Scheme
 ======================
  
 Fit Set Quality     : GOOD
 Threshold Quality   : GOOD
 Integration Quality : GOOD
 Fit Generation Method : AUTO
 Response Quality    : DEFAULT
 Is Range Separated  :  F
 
 RIHartreeFock Dependency: number of modified vectors:           9
 cosmo_calcen: 0.5 (esolb+esolc) (Hartrees) =   -0.057869

 Solvation energy (screening term,uncorrected) =    -36.313446 kcal/mol

 Solvation energy (dispersion and cavitation terms) =      1.179323 kcal/mol
 Solvation Energy Contributions (Hartrees)
          esola   esolb+esolc
     0.05786915   -0.11573831
 esol last cycle   -0.05786915
  
 Hartree-Fock exchange energy:   -565.331477752521     
 cosmo_calcen: 0.5 (esolb+esolc) (Hartrees) =   -0.057869

 Solvation energy (screening term,uncorrected) =    -36.313469 kcal/mol

 Solvation energy (dispersion and cavitation terms) =      1.179323 kcal/mol
 Solvation Energy Contributions (Hartrees)
          esola   esolb+esolc
     0.05786919   -0.11573838
 esol last cycle   -0.05786919

 Energy gradients wrt nuclear displacements
 ==========================================

     Atom      Cartesian (a.u./angstrom)
                 X         Y         Z
 ----------------------------------------
     1 Pa    0.001884 -0.002621  0.004314
     2 O     0.003442  0.005113 -0.002214
     3 O    -0.005269  0.007882 -0.011910
     4 Cl   -0.002740  0.006353  0.004483
     5 H     0.001356 -0.000668  0.000073
     6 O    -0.005071 -0.003260 -0.000933
     7 H     0.001170 -0.000393 -0.001094
     8 H     0.001177 -0.000946 -0.000543
     9 H     0.000405 -0.000266  0.001478
    10 O     0.001437 -0.007094  0.010301
    11 Cl    0.007354 -0.003396 -0.003659
    12 H    -0.000320 -0.000536  0.001411
    13 H     0.000791 -0.000804  0.000951
    14 O    -0.005539  0.001670 -0.003433
    15 H    -0.000076 -0.001034  0.000774
 ----------------------------------------
 Mulliken charges used for AMS results%charges...

 dE(predicted):    -0.10298E-02, dE(actual):    -0.13718E-02, Trust radius:    0.200000, all in a.u.
 
----------------------------------------------------------------------
Geometry Convergence after Step   2       (Hartree/Angstrom,Angstrom)
----------------------------------------------------------------------
current energy                               -3.91722531 Hartree
energy change                      -0.00137181     0.00001500    F
constrained gradient max            0.01190830     0.00010000    F
constrained gradient rms            0.00396603     0.00006667    F
gradient max                        0.01190830
gradient rms                        0.00396603
cart. step max                      0.01608562     0.00100000    F
cart. step rms                      0.00600903     0.00066667    F
 
 
--------
Geometry
--------
Formula: H7Cl2O5Pa
Atoms
  Index Symbol   x (angstrom)   y (angstrom)   z (angstrom)
      1     Pa    -0.30032423    -0.25433489     0.51873358       adf.R=2.200
      2      O     1.64220302     1.29796405     1.04717095       adf.R=1.517
      3      O    -0.66089144     0.74143085    -1.24738084       adf.R=1.517
      4     Cl    -1.24881614     1.85533736     1.99989587       adf.R=1.725
      5      H    -0.08907804     0.90338967    -2.00627080       adf.R=1.350
      6      O    -1.25063062    -2.33014856    -0.61051502       adf.R=1.517
      7      H    -1.25378571    -2.37472602    -1.57205006       adf.R=1.350
      8      H    -0.91705567    -3.18108858    -0.30836047       adf.R=1.350
      9      H     1.55175710     1.82888593     1.84537035       adf.R=1.350
     10      O    -0.09493398    -1.28805223     2.00110395       adf.R=1.517
     11     Cl     1.94375007    -1.28438617    -0.64747472       adf.R=1.725
     12      H    -3.26794960    -0.03526576     1.40334244       adf.R=1.350
     13      H     2.51839121     0.89942128     1.06404780       adf.R=1.350
     14      O    -2.85496051    -0.45747560     0.64317751       adf.R=1.517
     15      H    -3.21361792    -1.34905017     0.58817888       adf.R=1.350
 
Total System Charge             0.00000
Bonding info available!
 
 *** GO1_GOStep3 ***

 SOLVATION
-------------------------------------------

  The Delley construction of COSMO surface surface is calculated

       Division Level for Surface Triangles (NDIV)                  3
       Final Division Level for Triangles (NFDIV)                   1
       Radius of the Solvent (RSOL)                           1.93000 angstr
  Dielectric Constant (EPSL)                                 78.39000

       COSMO equation is solved iteratively-               conjugate-gradient

       Maximun of Iterations for Charges (NCIX)                  1000
       Criterion for Charge convergence (CCNV)                1.0E-08

  COSMO charges included variationally in SCF

       COSMO included at every SCF cycle

  Geometry-dependent empirical factor                         0.00000

  C-Matrix calculated in cspmtx

  In cspmtx, C-Matrix calculated using fitted potential

-------------------------------------------



 -------------------------------------------
  COSMO surface
  Area             =          628.306
  Volume           =         1151.249
  Number of Points =         1515
 -------------------------------------------



 ======================
 RI Hartree-Fock Scheme
 ======================
  
 Fit Set Quality     : GOOD
 Threshold Quality   : GOOD
 Integration Quality : GOOD
 Fit Generation Method : AUTO
 Response Quality    : DEFAULT
 Is Range Separated  :  F
 
 RIHartreeFock Dependency: number of modified vectors:           9
 cosmo_calcen: 0.5 (esolb+esolc) (Hartrees) =   -0.057509

 Solvation energy (screening term,uncorrected) =    -36.087168 kcal/mol

 Solvation energy (dispersion and cavitation terms) =      1.174883 kcal/mol
 Solvation Energy Contributions (Hartrees)
          esola   esolb+esolc
     0.05750856   -0.11501711
 esol last cycle   -0.05750856
  
 Hartree-Fock exchange energy:   -565.360615626524     
 cosmo_calcen: 0.5 (esolb+esolc) (Hartrees) =   -0.057509

 Solvation energy (screening term,uncorrected) =    -36.087172 kcal/mol

 Solvation energy (dispersion and cavitation terms) =      1.174883 kcal/mol
 Solvation Energy Contributions (Hartrees)
          esola   esolb+esolc
     0.05750856   -0.11501713
 esol last cycle   -0.05750856

 Energy gradients wrt nuclear displacements
 ==========================================

     Atom      Cartesian (a.u./angstrom)
                 X         Y         Z
 ----------------------------------------
     1 Pa    0.002891 -0.007422  0.011407
     2 O     0.005594  0.004556  0.001502
     3 O    -0.001467  0.003795 -0.006678
     4 Cl   -0.001578  0.003530  0.002487
     5 H    -0.000457 -0.001399  0.002994
     6 O    -0.002338 -0.006423 -0.003681
     7 H     0.000876  0.000411  0.002876
     8 H    -0.000322  0.002766 -0.001102
     9 H     0.000279 -0.002165 -0.001856
    10 O    -0.000722  0.003497 -0.005193
    11 Cl    0.004159 -0.002081 -0.002272
    12 H     0.001471 -0.001765 -0.001699
    13 H    -0.002852  0.000551  0.000360
    14 O    -0.007179 -0.000248  0.000290
    15 H     0.001645  0.002397  0.000565
 ----------------------------------------
 Mulliken charges used for AMS results%charges...

 dE(predicted):    -0.36200E-03, dE(actual):    -0.45545E-03, Trust radius:    0.200000, all in a.u.
 
----------------------------------------------------------------------
Geometry Convergence after Step   3       (Hartree/Angstrom,Angstrom)
----------------------------------------------------------------------
current energy                               -3.91768076 Hartree
energy change                      -0.00045545     0.00001500    F
constrained gradient max            0.01140561     0.00010000    F
constrained gradient rms            0.00356411     0.00006667    F
gradient max                        0.01140561
gradient rms                        0.00356411
cart. step max                      0.01258399     0.00100000    F
cart. step rms                      0.00471653     0.00066667    F
 
 
--------
Geometry
--------
Formula: H7Cl2O5Pa
Atoms
  Index Symbol   x (angstrom)   y (angstrom)   z (angstrom)
      1     Pa    -0.30002930    -0.25327081     0.51275760       adf.R=2.200
      2      O     1.63714916     1.29204048     1.05333742       adf.R=1.517
      3      O    -0.65178284     0.73797064    -1.24818956       adf.R=1.517
      4     Cl    -1.24895019     1.85185843     1.98731188       adf.R=1.725
      5      H    -0.08481241     0.90622885    -2.00997755       adf.R=1.350
      6      O    -1.24701834    -2.32589723    -0.61219199       adf.R=1.517
      7      H    -1.26051747    -2.37486277    -1.57366246       adf.R=1.350
      8      H    -0.92373896    -3.17952595    -0.30572280       adf.R=1.350
      9      H     1.54416550     1.82938301     1.84724284       adf.R=1.350
     10      O    -0.09420459    -1.28582199     1.99416441       adf.R=1.517
     11     Cl     1.93971842    -1.27930203    -0.64764923       adf.R=1.725
     12      H    -3.26280040    -0.03278485     1.40686846       adf.R=1.350
     13      H     2.51652838     0.89985060     1.06807947       adf.R=1.350
     14      O    -2.84780057    -0.46218199     0.65152689       adf.R=1.517
     15      H    -3.21184886    -1.35178324     0.59507404       adf.R=1.350
 
Total System Charge             0.00000
Bonding info available!
 
 *** GO1_GOStep4 ***

 SOLVATION
-------------------------------------------

  The Delley construction of COSMO surface surface is calculated

       Division Level for Surface Triangles (NDIV)                  3
       Final Division Level for Triangles (NFDIV)                   1
       Radius of the Solvent (RSOL)                           1.93000 angstr
  Dielectric Constant (EPSL)                                 78.39000

       COSMO equation is solved iteratively-               conjugate-gradient

       Maximun of Iterations for Charges (NCIX)                  1000
       Criterion for Charge convergence (CCNV)                1.0E-08

  COSMO charges included variationally in SCF

       COSMO included at every SCF cycle

  Geometry-dependent empirical factor                         0.00000

  C-Matrix calculated in cspmtx

  In cspmtx, C-Matrix calculated using fitted potential

-------------------------------------------



 -------------------------------------------
  COSMO surface
  Area             =          629.742
  Volume           =         1153.004
  Number of Points =         1518
 -------------------------------------------



 ======================
 RI Hartree-Fock Scheme
 ======================
  
 Fit Set Quality     : GOOD
 Threshold Quality   : GOOD
 Integration Quality : GOOD
 Fit Generation Method : AUTO
 Response Quality    : DEFAULT
 Is Range Separated  :  F
 
 RIHartreeFock Dependency: number of modified vectors:           9
 cosmo_calcen: 0.5 (esolb+esolc) (Hartrees) =   -0.057612

 Solvation energy (screening term,uncorrected) =    -36.151821 kcal/mol

 Solvation energy (dispersion and cavitation terms) =      1.177569 kcal/mol
 Solvation Energy Contributions (Hartrees)
          esola   esolb+esolc
     0.05761159   -0.11522318
 esol last cycle   -0.05761159
  
 Hartree-Fock exchange energy:   -565.368794041288     
 cosmo_calcen: 0.5 (esolb+esolc) (Hartrees) =   -0.057612

 Solvation energy (screening term,uncorrected) =    -36.151820 kcal/mol

 Solvation energy (dispersion and cavitation terms) =      1.177569 kcal/mol
 Solvation Energy Contributions (Hartrees)
          esola   esolb+esolc
     0.05761159   -0.11522317
 esol last cycle   -0.05761159

 Energy gradients wrt nuclear displacements
 ==========================================

     Atom      Cartesian (a.u./angstrom)
                 X         Y         Z
 ----------------------------------------
     1 Pa    0.002611 -0.005894  0.009291
     2 O     0.004284  0.003615  0.001333
     3 O    -0.000823  0.000710 -0.000892
     4 Cl   -0.000743  0.001588  0.001172
     5 H     0.000240 -0.001292  0.002264
     6 O    -0.001700 -0.005362 -0.003079
     7 H     0.000632  0.000802  0.002086
     8 H    -0.000169  0.002229 -0.000396
     9 H    -0.000126 -0.001567 -0.001383
    10 O    -0.001204  0.005829 -0.008573
    11 Cl    0.001996 -0.001129 -0.001256
    12 H     0.001294 -0.001087 -0.001203
    13 H    -0.002181  0.000075 -0.000030
    14 O    -0.005606 -0.000097  0.000512
    15 H     0.001494  0.001578  0.000153
 ----------------------------------------
 Mulliken charges used for AMS results%charges...

 dE(predicted):    -0.13681E-03, dE(actual):    -0.18564E-03, Trust radius:    0.200000, all in a.u.
 
----------------------------------------------------------------------
Geometry Convergence after Step   4       (Hartree/Angstrom,Angstrom)
----------------------------------------------------------------------
current energy                               -3.91786640 Hartree
energy change                      -0.00018564     0.00001500    F
constrained gradient max            0.00929048     0.00010000    F
constrained gradient rms            0.00295022     0.00006667    F
gradient max                        0.00929048
gradient rms                        0.00295022
cart. step max                      0.01992649     0.00100000    F
cart. step rms                      0.00733124     0.00066667    F
 
 
--------
Geometry
--------
Formula: H7Cl2O5Pa
Atoms
  Index Symbol   x (angstrom)   y (angstrom)   z (angstrom)
      1     Pa    -0.29849873    -0.25188303     0.50346921       adf.R=2.200
      2      O     1.63093243     1.28150223     1.06380291       adf.R=1.517
      3      O    -0.63982350     0.73566528    -1.25275879       adf.R=1.517
      4     Cl    -1.24849830     1.84811450     1.96738539       adf.R=1.725
      5      H    -0.08514357     0.91742177    -2.02169457       adf.R=1.350
      6      O    -1.24183605    -2.31942397    -0.61360315       adf.R=1.517
      7      H    -1.27255668    -2.37744819    -1.57502598       adf.R=1.350
      8      H    -0.93588976    -3.17819237    -0.30107205       adf.R=1.350
      9      H     1.53469275     1.82978119     1.85079722       adf.R=1.350
     10      O    -0.09219784    -1.28517034     1.98956069       adf.R=1.517
     11     Cl     1.93737254    -1.27137791    -0.64572805       adf.R=1.725
     12      H    -3.25565382    -0.02946428     1.40922202       adf.R=1.350
     13      H     2.51606671     0.90032509     1.07673334       adf.R=1.350
     14      O    -2.83550210    -0.47081143     0.66265297       adf.R=1.517
     15      H    -3.20940655    -1.35713739     0.60522825       adf.R=1.350
 
Total System Charge             0.00000
Bonding info available!
 
 *** GO1_GOStep5 ***

 SOLVATION
-------------------------------------------

  The Delley construction of COSMO surface surface is calculated

       Division Level for Surface Triangles (NDIV)                  3
       Final Division Level for Triangles (NFDIV)                   1
       Radius of the Solvent (RSOL)                           1.93000 angstr
  Dielectric Constant (EPSL)                                 78.39000

       COSMO equation is solved iteratively-               conjugate-gradient

       Maximun of Iterations for Charges (NCIX)                  1000
       Criterion for Charge convergence (CCNV)                1.0E-08

  COSMO charges included variationally in SCF

       COSMO included at every SCF cycle

  Geometry-dependent empirical factor                         0.00000

  C-Matrix calculated in cspmtx

  In cspmtx, C-Matrix calculated using fitted potential

-------------------------------------------



 -------------------------------------------
  COSMO surface
  Area             =          627.808
  Volume           =         1148.442
  Number of Points =         1510
 -------------------------------------------



 ======================
 RI Hartree-Fock Scheme
 ======================
  
 Fit Set Quality     : GOOD
 Threshold Quality   : GOOD
 Integration Quality : GOOD
 Fit Generation Method : AUTO
 Response Quality    : DEFAULT
 Is Range Separated  :  F
 
 RIHartreeFock Dependency: number of modified vectors:           9
 cosmo_calcen: 0.5 (esolb+esolc) (Hartrees) =   -0.058119

 Solvation energy (screening term,uncorrected) =    -36.470402 kcal/mol

 Solvation energy (dispersion and cavitation terms) =      1.173952 kcal/mol
 Solvation Energy Contributions (Hartrees)
          esola   esolb+esolc
     0.05811928   -0.11623856
 esol last cycle   -0.05811928
  
 Hartree-Fock exchange energy:   -565.371407110021     
 cosmo_calcen: 0.5 (esolb+esolc) (Hartrees) =   -0.058119

 Solvation energy (screening term,uncorrected) =    -36.470396 kcal/mol

 Solvation energy (dispersion and cavitation terms) =      1.173952 kcal/mol
 Solvation Energy Contributions (Hartrees)
          esola   esolb+esolc
     0.05811927   -0.11623854
 esol last cycle   -0.05811927

 Energy gradients wrt nuclear displacements
 ==========================================

     Atom      Cartesian (a.u./angstrom)
                 X         Y         Z
 ----------------------------------------
     1 Pa    0.001539 -0.000095  0.001026
     2 O     0.001597  0.002015  0.000120
     3 O    -0.000662 -0.002365  0.005381
     4 Cl    0.000276 -0.000756 -0.000357
     5 H     0.001439 -0.000877  0.000568
     6 O    -0.001353 -0.002541 -0.001294
     7 H     0.000363  0.000857  0.000189
     8 H     0.000294  0.000567  0.000452
     9 H    -0.000561 -0.000462  0.000008
    10 O    -0.000857  0.003929 -0.005668
    11 Cl   -0.000580  0.000091  0.000045
    12 H     0.000544  0.000019  0.000068
    13 H    -0.000343 -0.000572 -0.000292
    14 O    -0.002429  0.000349 -0.000003
    15 H     0.000733 -0.000157 -0.000240
 ----------------------------------------
 Mulliken charges used for AMS results%charges...

 dE(predicted):    -0.15572E-03, dE(actual):    -0.18213E-03, Trust radius:    0.200000, all in a.u.
 
----------------------------------------------------------------------
Geometry Convergence after Step   5       (Hartree/Angstrom,Angstrom)
----------------------------------------------------------------------
current energy                               -3.91804853 Hartree
energy change                      -0.00018213     0.00001500    F
constrained gradient max            0.00566571     0.00010000    F
constrained gradient rms            0.00161312     0.00006667    F
gradient max                        0.00566571
gradient rms                        0.00161312
cart. step max                      0.01269359     0.00100000    F
cart. step rms                      0.00508855     0.00066667    F
 
 
--------
Geometry
--------
Formula: H7Cl2O5Pa
Atoms
  Index Symbol   x (angstrom)   y (angstrom)   z (angstrom)
      1     Pa    -0.29668630    -0.25171043     0.49859880       adf.R=2.200
      2      O     1.62894239     1.27338423     1.07138499       adf.R=1.517
      3      O    -0.63555569     0.73651195    -1.25794243       adf.R=1.517
      4     Cl    -1.24795737     1.84745190     1.95557285       adf.R=1.725
      5      H    -0.09373884     0.93011537    -2.03337867       adf.R=1.350
      6      O    -1.23755534    -2.31636964    -0.61351620       adf.R=1.517
      7      H    -1.27978733    -2.38136001    -1.57448066       adf.R=1.350
      8      H    -0.94315079    -3.17849711    -0.29788588       adf.R=1.350
      9      H     1.53179458     1.83022485     1.85269703       adf.R=1.350
     10      O    -0.09065327    -1.28648206     1.98968916       adf.R=1.517
     11     Cl     1.93936299    -1.26717668    -0.64269922       adf.R=1.725
     12      H    -3.25218343    -0.02712981     1.40762900       adf.R=1.350
     13      H     2.51734752     0.89911349     1.08481468       adf.R=1.350
     14      O    -2.82745726    -0.47630420     0.66789526       adf.R=1.517
     15      H    -3.20866433    -1.35987068     0.61059071       adf.R=1.350
 
Total System Charge             0.00000
Bonding info available!
 
 *** GO1_GOStep6 ***

 SOLVATION
-------------------------------------------

  The Delley construction of COSMO surface surface is calculated

       Division Level for Surface Triangles (NDIV)                  3
       Final Division Level for Triangles (NFDIV)                   1
       Radius of the Solvent (RSOL)                           1.93000 angstr
  Dielectric Constant (EPSL)                                 78.39000

       COSMO equation is solved iteratively-               conjugate-gradient

       Maximun of Iterations for Charges (NCIX)                  1000
       Criterion for Charge convergence (CCNV)                1.0E-08

  COSMO charges included variationally in SCF

       COSMO included at every SCF cycle

  Geometry-dependent empirical factor                         0.00000

  C-Matrix calculated in cspmtx

  In cspmtx, C-Matrix calculated using fitted potential

-------------------------------------------



 -------------------------------------------
  COSMO surface
  Area             =          626.977
  Volume           =         1146.089
  Number of Points =         1508
 -------------------------------------------



 ======================
 RI Hartree-Fock Scheme
 ======================
  
 Fit Set Quality     : GOOD
 Threshold Quality   : GOOD
 Integration Quality : GOOD
 Fit Generation Method : AUTO
 Response Quality    : DEFAULT
 Is Range Separated  :  F
 
 RIHartreeFock Dependency: number of modified vectors:           9
 cosmo_calcen: 0.5 (esolb+esolc) (Hartrees) =   -0.058582

 Solvation energy (screening term,uncorrected) =    -36.761037 kcal/mol

 Solvation energy (dispersion and cavitation terms) =      1.172398 kcal/mol
 Solvation Energy Contributions (Hartrees)
          esola   esolb+esolc
     0.05858243   -0.11716487
 esol last cycle   -0.05858243
  
 Hartree-Fock exchange energy:   -565.368514322012     
 cosmo_calcen: 0.5 (esolb+esolc) (Hartrees) =   -0.058582

 Solvation energy (screening term,uncorrected) =    -36.761035 kcal/mol

 Solvation energy (dispersion and cavitation terms) =      1.172398 kcal/mol
 Solvation Energy Contributions (Hartrees)
          esola   esolb+esolc
     0.05858243   -0.11716486
 esol last cycle   -0.05858243

 Energy gradients wrt nuclear displacements
 ==========================================

     Atom      Cartesian (a.u./angstrom)
                 X         Y         Z
 ----------------------------------------
     1 Pa    0.000779  0.003406 -0.003844
     2 O     0.000175  0.000974 -0.000793
     3 O    -0.000672 -0.002434  0.005716
     4 Cl    0.000624 -0.001561 -0.000884
     5 H     0.001661 -0.000577 -0.000187
     6 O    -0.001262 -0.000745 -0.000170
     7 H     0.000280  0.000487 -0.000645
     8 H     0.000456 -0.000308  0.000513
     9 H    -0.000471  0.000127  0.000768
    10 O    -0.000219  0.000732 -0.000874
    11 Cl   -0.001473  0.000582  0.000574
    12 H     0.000060  0.000306  0.000620
    13 H     0.000482 -0.000707 -0.000158
    14 O    -0.000657  0.000477 -0.000410
    15 H     0.000238 -0.000762 -0.000228
 ----------------------------------------
 Mulliken charges used for AMS results%charges...

 dE(predicted):    -0.63962E-04, dE(actual):    -0.37354E-04, Trust radius:    0.200000, all in a.u.
 
----------------------------------------------------------------------
Geometry Convergence after Step   6       (Hartree/Angstrom,Angstrom)
----------------------------------------------------------------------
current energy                               -3.91808589 Hartree
energy change                      -0.00003735     0.00001500    F
constrained gradient max            0.00571320     0.00010000    F
constrained gradient rms            0.00137932     0.00006667    F
gradient max                        0.00571320
gradient rms                        0.00137932
cart. step max                      0.01710460     0.00100000    F
cart. step rms                      0.00561239     0.00066667    F
 
 
--------
Geometry
--------
Formula: H7Cl2O5Pa
Atoms
  Index Symbol   x (angstrom)   y (angstrom)   z (angstrom)
      1     Pa    -0.29405062    -0.25283762     0.49561248       adf.R=2.200
      2      O     1.62876465     1.26478855     1.07962033       adf.R=1.517
      3      O    -0.63563133     0.73818263    -1.26356309       adf.R=1.517
      4     Cl    -1.24687857     1.84801405     1.94654150       adf.R=1.725
      5      H    -0.11084344     0.94571406    -2.04663778       adf.R=1.350
      6      O    -1.23149862    -2.31533742    -0.61272033       adf.R=1.517
      7      H    -1.28502600    -2.38689495    -1.57272254       adf.R=1.350
      8      H    -0.94788807    -3.18030887    -0.29482244       adf.R=1.350
      9      H     1.53136018     1.83070517     1.85421079       adf.R=1.350
     10      O    -0.08909032    -1.28914390     1.99034464       adf.R=1.517
     11     Cl     1.94435273    -1.26504924    -0.63887659       adf.R=1.725
     12      H    -3.24985510    -0.02278238     1.40269009       adf.R=1.350
     13      H     2.51987398     0.89729747     1.09420549       adf.R=1.350
     14      O    -2.82012665    -0.48019542     0.67092384       adf.R=1.517
     15      H    -3.20940529    -1.36025096     0.61416301       adf.R=1.350
 
Total System Charge             0.00000
Bonding info available!
 
 *** GO1_GOStep7 ***

 SOLVATION
-------------------------------------------

  The Delley construction of COSMO surface surface is calculated

       Division Level for Surface Triangles (NDIV)                  3
       Final Division Level for Triangles (NFDIV)                   1
       Radius of the Solvent (RSOL)                           1.93000 angstr
  Dielectric Constant (EPSL)                                 78.39000

       COSMO equation is solved iteratively-               conjugate-gradient

       Maximun of Iterations for Charges (NCIX)                  1000
       Criterion for Charge convergence (CCNV)                1.0E-08

  COSMO charges included variationally in SCF

       COSMO included at every SCF cycle

  Geometry-dependent empirical factor                         0.00000

  C-Matrix calculated in cspmtx

  In cspmtx, C-Matrix calculated using fitted potential

-------------------------------------------



 -------------------------------------------
  COSMO surface
  Area             =          628.391
  Volume           =         1146.503
  Number of Points =         1510
 -------------------------------------------



 ======================
 RI Hartree-Fock Scheme
 ======================
  
 Fit Set Quality     : GOOD
 Threshold Quality   : GOOD
 Integration Quality : GOOD
 Fit Generation Method : AUTO
 Response Quality    : DEFAULT
 Is Range Separated  :  F
 
 RIHartreeFock Dependency: number of modified vectors:           9
 cosmo_calcen: 0.5 (esolb+esolc) (Hartrees) =   -0.059006

 Solvation energy (screening term,uncorrected) =    -37.026781 kcal/mol

 Solvation energy (dispersion and cavitation terms) =      1.175043 kcal/mol
 Solvation Energy Contributions (Hartrees)
          esola   esolb+esolc
     0.05900593   -0.11801185
 esol last cycle   -0.05900593
  
 Hartree-Fock exchange energy:   -565.365088076617     
 cosmo_calcen: 0.5 (esolb+esolc) (Hartrees) =   -0.059006

 Solvation energy (screening term,uncorrected) =    -37.026781 kcal/mol

 Solvation energy (dispersion and cavitation terms) =      1.175043 kcal/mol
 Solvation Energy Contributions (Hartrees)
          esola   esolb+esolc
     0.05900592   -0.11801185
 esol last cycle   -0.05900592

 Energy gradients wrt nuclear displacements
 ==========================================

     Atom      Cartesian (a.u./angstrom)
                 X         Y         Z
 ----------------------------------------
     1 Pa    0.000480  0.004386 -0.005049
     2 O    -0.000383  0.000336 -0.000802
     3 O    -0.000679 -0.000872  0.002854
     4 Cl    0.000696 -0.001720 -0.001041
     5 H     0.001235 -0.000359 -0.000312
     6 O    -0.001049  0.000314  0.000440
     7 H     0.000249  0.000009 -0.000712
     8 H     0.000382 -0.000552  0.000169
     9 H    -0.000082  0.000030  0.000551
    10 O     0.000314 -0.001859  0.002992
    11 Cl   -0.001672  0.000762  0.000770
    12 H    -0.000180  0.000185  0.000639
    13 H     0.000364 -0.000387  0.000081
    14 O     0.000404  0.000430 -0.000504
    15 H    -0.000079 -0.000702 -0.000077
 ----------------------------------------
 Mulliken charges used for AMS results%charges...

 dE(predicted):    -0.48323E-04, dE(actual):    -0.10892E-03, Trust radius:    0.200000, all in a.u.
 
----------------------------------------------------------------------
Geometry Convergence after Step   7       (Hartree/Angstrom,Angstrom)
----------------------------------------------------------------------
current energy                               -3.91819481 Hartree
energy change                      -0.00010892     0.00001500    F
constrained gradient max            0.00504968     0.00010000    F
constrained gradient rms            0.00135477     0.00006667    F
gradient max                        0.00504968
gradient rms                        0.00135477
cart. step max                      0.01720364     0.00100000    F
cart. step rms                      0.00440289     0.00066667    F
 
 
--------
Geometry
--------
Formula: H7Cl2O5Pa
Atoms
  Index Symbol   x (angstrom)   y (angstrom)   z (angstrom)
      1     Pa    -0.29171896    -0.25453543     0.49486856       adf.R=2.200
      2      O     1.62964441     1.25894774     1.08579960       adf.R=1.517
      3      O    -0.63854852     0.73840649    -1.26680554       adf.R=1.517
      4     Cl    -1.24555684     1.84906400     1.94300733       adf.R=1.725
      5      H    -0.12804708     0.95666136    -2.05574395       adf.R=1.350
      6      O    -1.22576829    -2.31601882    -0.61202319       adf.R=1.517
      7      H    -1.28716451    -2.39112217    -1.57109595       adf.R=1.350
      8      H    -0.94899915    -3.18253382    -0.29287369       adf.R=1.350
      9      H     1.53188688     1.83147449     1.85535355       adf.R=1.350
     10      O    -0.08806683    -1.29169245     1.98954161       adf.R=1.517
     11     Cl     1.94957734    -1.26539981    -0.63625347       adf.R=1.725
     12      H    -3.24894298    -0.01757690     1.39703106       adf.R=1.350
     13      H     2.52254931     0.89613725     1.10109965       adf.R=1.350
     14      O    -2.81579192    -0.48136598     0.67160019       adf.R=1.517
     15      H    -3.21099530    -1.35854479     0.61546365       adf.R=1.350
 
Total System Charge             0.00000
Bonding info available!
 
 *** GO1_GOStep8 ***

 SOLVATION
-------------------------------------------

  The Delley construction of COSMO surface surface is calculated

       Division Level for Surface Triangles (NDIV)                  3
       Final Division Level for Triangles (NFDIV)                   1
       Radius of the Solvent (RSOL)                           1.93000 angstr
  Dielectric Constant (EPSL)                                 78.39000

       COSMO equation is solved iteratively-               conjugate-gradient

       Maximun of Iterations for Charges (NCIX)                  1000
       Criterion for Charge convergence (CCNV)                1.0E-08

  COSMO charges included variationally in SCF

       COSMO included at every SCF cycle

  Geometry-dependent empirical factor                         0.00000

  C-Matrix calculated in cspmtx

  In cspmtx, C-Matrix calculated using fitted potential

-------------------------------------------



 -------------------------------------------
  COSMO surface
  Area             =          628.285
  Volume           =         1145.689
  Number of Points =         1509
 -------------------------------------------



 ======================
 RI Hartree-Fock Scheme
 ======================
  
 Fit Set Quality     : GOOD
 Threshold Quality   : GOOD
 Integration Quality : GOOD
 Fit Generation Method : AUTO
 Response Quality    : DEFAULT
 Is Range Separated  :  F
 
 RIHartreeFock Dependency: number of modified vectors:           9
 cosmo_calcen: 0.5 (esolb+esolc) (Hartrees) =   -0.059204

 Solvation energy (screening term,uncorrected) =    -37.151279 kcal/mol

 Solvation energy (dispersion and cavitation terms) =      1.174844 kcal/mol
 Solvation Energy Contributions (Hartrees)
          esola   esolb+esolc
     0.05920432   -0.11840865
 esol last cycle   -0.05920432
  
 Hartree-Fock exchange energy:   -565.363787048234     
 cosmo_calcen: 0.5 (esolb+esolc) (Hartrees) =   -0.059204

 Solvation energy (screening term,uncorrected) =    -37.151273 kcal/mol

 Solvation energy (dispersion and cavitation terms) =      1.174844 kcal/mol
 Solvation Energy Contributions (Hartrees)
          esola   esolb+esolc
     0.05920432   -0.11840863
 esol last cycle   -0.05920432

 Energy gradients wrt nuclear displacements
 ==========================================

     Atom      Cartesian (a.u./angstrom)
                 X         Y         Z
 ----------------------------------------
     1 Pa    0.000742  0.002821 -0.002678
     2 O    -0.000591  0.000012 -0.000765
     3 O    -0.000712  0.000765 -0.000250
     4 Cl    0.000602 -0.001461 -0.000961
     5 H     0.000634 -0.000302 -0.000022
     6 O    -0.000724  0.000432  0.000433
     7 H     0.000176 -0.000204 -0.000356
     8 H     0.000231 -0.000347 -0.000137
     9 H     0.000112 -0.000000  0.000447
    10 O     0.000374 -0.002113  0.003318
    11 Cl   -0.001460  0.000660  0.000718
    12 H    -0.000155 -0.000080  0.000338
    13 H     0.000308 -0.000187  0.000204
    14 O     0.000563  0.000244 -0.000266
    15 H    -0.000100 -0.000240 -0.000021
 ----------------------------------------
 Mulliken charges used for AMS results%charges...

 dE(predicted):    -0.23993E-04, dE(actual):    -0.39309E-04, Trust radius:    0.200000, all in a.u.
 
----------------------------------------------------------------------
Geometry Convergence after Step   8       (Hartree/Angstrom,Angstrom)
----------------------------------------------------------------------
current energy                               -3.91823412 Hartree
energy change                      -0.00003931     0.00001500    F
constrained gradient max            0.00332626     0.00010000    F
constrained gradient rms            0.00097424     0.00006667    F
gradient max                        0.00332626
gradient rms                        0.00097424
cart. step max                      0.01555959     0.00100000    F
cart. step rms                      0.00372884     0.00066667    F
 
 
--------
Geometry
--------
Formula: H7Cl2O5Pa
Atoms
  Index Symbol   x (angstrom)   y (angstrom)   z (angstrom)
      1     Pa    -0.28982095    -0.25637038     0.49494679       adf.R=2.200
      2      O     1.63061998     1.25460075     1.09086675       adf.R=1.517
      3      O    -0.64174952     0.73662984    -1.26829741       adf.R=1.517
      4     Cl    -1.24444432     1.85000929     1.94262361       adf.R=1.725
      5      H    -0.14360667     0.96413933    -2.06200715       adf.R=1.350
      6      O    -1.22027747    -2.31715181    -0.61190477       adf.R=1.517
      7      H    -1.28759903    -2.39404878    -1.57020268       adf.R=1.350
      8      H    -0.94893070    -3.18467893    -0.29159612       adf.R=1.350
      9      H     1.53231669     1.83264723     1.85591680       adf.R=1.350
     10      O    -0.08733479    -1.29418993     1.98730908       adf.R=1.517
     11     Cl     1.95478195    -1.26642818    -0.63456431       adf.R=1.725
     12      H    -3.24866895    -0.01121590     1.39110782       adf.R=1.350
     13      H     2.52479952     0.89558289     1.10626609       adf.R=1.350
     14      O    -2.81309887    -0.48134269     0.67150647       adf.R=1.517
     15      H    -3.21292934    -1.35628157     0.61699845       adf.R=1.350
 
Total System Charge             0.00000
Bonding info available!
 
 *** GO1_GOStep9 ***

 SOLVATION
-------------------------------------------

  The Delley construction of COSMO surface surface is calculated

       Division Level for Surface Triangles (NDIV)                  3
       Final Division Level for Triangles (NFDIV)                   1
       Radius of the Solvent (RSOL)                           1.93000 angstr
  Dielectric Constant (EPSL)                                 78.39000

       COSMO equation is solved iteratively-               conjugate-gradient

       Maximun of Iterations for Charges (NCIX)                  1000
       Criterion for Charge convergence (CCNV)                1.0E-08

  COSMO charges included variationally in SCF

       COSMO included at every SCF cycle

  Geometry-dependent empirical factor                         0.00000

  C-Matrix calculated in cspmtx

  In cspmtx, C-Matrix calculated using fitted potential

-------------------------------------------



 -------------------------------------------
  COSMO surface
  Area             =          629.590
  Volume           =         1146.705
  Number of Points =         1508
 -------------------------------------------



 ======================
 RI Hartree-Fock Scheme
 ======================
  
 Fit Set Quality     : GOOD
 Threshold Quality   : GOOD
 Integration Quality : GOOD
 Fit Generation Method : AUTO
 Response Quality    : DEFAULT
 Is Range Separated  :  F
 
 RIHartreeFock Dependency: number of modified vectors:           9
 cosmo_calcen: 0.5 (esolb+esolc) (Hartrees) =   -0.059293

 Solvation energy (screening term,uncorrected) =    -37.206794 kcal/mol

 Solvation energy (dispersion and cavitation terms) =      1.177284 kcal/mol
 Solvation Energy Contributions (Hartrees)
          esola   esolb+esolc
     0.05929279   -0.11858559
 esol last cycle   -0.05929279
  
 Hartree-Fock exchange energy:   -565.364402119480     
 cosmo_calcen: 0.5 (esolb+esolc) (Hartrees) =   -0.059293

 Solvation energy (screening term,uncorrected) =    -37.206788 kcal/mol

 Solvation energy (dispersion and cavitation terms) =      1.177284 kcal/mol
 Solvation Energy Contributions (Hartrees)
          esola   esolb+esolc
     0.05929278   -0.11858557
 esol last cycle   -0.05929278

 Energy gradients wrt nuclear displacements
 ==========================================

     Atom      Cartesian (a.u./angstrom)
                 X         Y         Z
 ----------------------------------------
     1 Pa    0.000980  0.000458  0.000837
     2 O    -0.000378 -0.000090 -0.000381
     3 O    -0.000667  0.001725 -0.002252
     4 Cl    0.000463 -0.001080 -0.000793
     5 H     0.000167 -0.000301  0.000244
     6 O    -0.000445  0.000163  0.000192
     7 H     0.000162 -0.000227  0.000002
     8 H     0.000088 -0.000008 -0.000282
     9 H     0.000171 -0.000162  0.000090
    10 O     0.000170 -0.000979  0.001541
    11 Cl   -0.001101  0.000491  0.000557
    12 H    -0.000065 -0.000255  0.000020
    13 H     0.000023  0.000013  0.000232
    14 O     0.000451  0.000133  0.000000
    15 H    -0.000020  0.000119 -0.000007
 ----------------------------------------
 Mulliken charges used for AMS results%charges...

 dE(predicted):    -0.15621E-04, dE(actual):    -0.29818E-04, Trust radius:    0.200000, all in a.u.
 
----------------------------------------------------------------------
Geometry Convergence after Step   9       (Hartree/Angstrom,Angstrom)
----------------------------------------------------------------------
current energy                               -3.91826394 Hartree
energy change                      -0.00002982     0.00001500    F
constrained gradient max            0.00226173     0.00010000    F
constrained gradient rms            0.00064665     0.00006667    F
gradient max                        0.00226173
gradient rms                        0.00064665
cart. step max                      0.01189081     0.00100000    F
cart. step rms                      0.00295670     0.00066667    F
 
 
--------
Geometry
--------
Formula: H7Cl2O5Pa
Atoms
  Index Symbol   x (angstrom)   y (angstrom)   z (angstrom)
      1     Pa    -0.28835747    -0.25797492     0.49497196       adf.R=2.200
      2      O     1.63121800     1.25170131     1.09464171       adf.R=1.517
      3      O    -0.64379304     0.73350603    -1.26829623       adf.R=1.517
      4     Cl    -1.24375654     1.85036874     1.94402135       adf.R=1.725
      5      H    -0.15549748     0.96920213    -2.06552199       adf.R=1.350
      6      O    -1.21564910    -2.31818594    -0.61214583       adf.R=1.517
      7      H    -1.28815686    -2.39583538    -1.56983620       adf.R=1.350
      8      H    -0.94889071    -3.18655235    -0.29070599       adf.R=1.350
      9      H     1.53232805     1.83416298     1.85610311       adf.R=1.350
     10      O    -0.08670340    -1.29651728     1.98473962       adf.R=1.517
     11     Cl     1.95955981    -1.26752548    -0.63355336       adf.R=1.725
     12      H    -3.24857010    -0.00478737     1.38540382       adf.R=1.350
     13      H     2.52649824     0.89587131     1.10931268       adf.R=1.350
     14      O    -2.81140592    -0.48109714     0.67099074       adf.R=1.517
     15      H    -3.21476596    -1.35443548     0.61884403       adf.R=1.350
 
Total System Charge             0.00000
Bonding info available!
 
 *** GO1_GOStep10 ***

 SOLVATION
-------------------------------------------

  The Delley construction of COSMO surface surface is calculated

       Division Level for Surface Triangles (NDIV)                  3
       Final Division Level for Triangles (NFDIV)                   1
       Radius of the Solvent (RSOL)                           1.93000 angstr
  Dielectric Constant (EPSL)                                 78.39000

       COSMO equation is solved iteratively-               conjugate-gradient

       Maximun of Iterations for Charges (NCIX)                  1000
       Criterion for Charge convergence (CCNV)                1.0E-08

  COSMO charges included variationally in SCF

       COSMO included at every SCF cycle

  Geometry-dependent empirical factor                         0.00000

  C-Matrix calculated in cspmtx

  In cspmtx, C-Matrix calculated using fitted potential

-------------------------------------------



 -------------------------------------------
  COSMO surface
  Area             =          630.902
  Volume           =         1148.117
  Number of Points =         1513
 -------------------------------------------



 ======================
 RI Hartree-Fock Scheme
 ======================
  
 Fit Set Quality     : GOOD
 Threshold Quality   : GOOD
 Integration Quality : GOOD
 Fit Generation Method : AUTO
 Response Quality    : DEFAULT
 Is Range Separated  :  F
 
 RIHartreeFock Dependency: number of modified vectors:           9
 cosmo_calcen: 0.5 (esolb+esolc) (Hartrees) =   -0.059363

 Solvation energy (screening term,uncorrected) =    -37.251015 kcal/mol

 Solvation energy (dispersion and cavitation terms) =      1.179739 kcal/mol
 Solvation Energy Contributions (Hartrees)
          esola   esolb+esolc
     0.05936326   -0.11872653
 esol last cycle   -0.05936326
  
 Hartree-Fock exchange energy:   -565.365633795314     
 cosmo_calcen: 0.5 (esolb+esolc) (Hartrees) =   -0.059363

 Solvation energy (screening term,uncorrected) =    -37.251008 kcal/mol

 Solvation energy (dispersion and cavitation terms) =      1.179739 kcal/mol
 Solvation Energy Contributions (Hartrees)
          esola   esolb+esolc
     0.05936325   -0.11872651
 esol last cycle   -0.05936325

 Energy gradients wrt nuclear displacements
 ==========================================

     Atom      Cartesian (a.u./angstrom)
                 X         Y         Z
 ----------------------------------------
     1 Pa    0.001082 -0.001178  0.003156
     2 O    -0.000127 -0.000168 -0.000072
     3 O    -0.000623  0.001831 -0.002667
     4 Cl    0.000339 -0.000747 -0.000588
     5 H    -0.000034 -0.000285  0.000314
     6 O    -0.000254 -0.000087 -0.000083
     7 H     0.000110 -0.000111  0.000190
     8 H     0.000052  0.000165 -0.000219
     9 H     0.000130 -0.000179 -0.000074
    10 O    -0.000069  0.000318 -0.000468
    11 Cl   -0.000797  0.000300  0.000406
    12 H    -0.000019 -0.000257 -0.000161
    13 H    -0.000191  0.000086  0.000140
    14 O     0.000351  0.000070  0.000189
    15 H     0.000051  0.000242 -0.000063
 ----------------------------------------
 Mulliken charges used for AMS results%charges...

 dE(predicted):    -0.97439E-05, dE(actual):    -0.17958E-04, Trust radius:    0.200000, all in a.u.
 
----------------------------------------------------------------------
Geometry Convergence after Step  10       (Hartree/Angstrom,Angstrom)
----------------------------------------------------------------------
current energy                               -3.91828190 Hartree
energy change                      -0.00001796     0.00001500    F
constrained gradient max            0.00315484     0.00010000    F
constrained gradient rms            0.00076715     0.00006667    F
gradient max                        0.00315484
gradient rms                        0.00076715
cart. step max                      0.00971814     0.00100000    F
cart. step rms                      0.00277902     0.00066667    F
 
 
--------
Geometry
--------
Formula: H7Cl2O5Pa
Atoms
  Index Symbol   x (angstrom)   y (angstrom)   z (angstrom)
      1     Pa    -0.28705074    -0.25965103     0.49449034       adf.R=2.200
      2      O     1.63136847     1.24933577     1.09790537       adf.R=1.517
      3      O    -0.64427905     0.72927864    -1.26759074       adf.R=1.517
      4     Cl    -1.24360264     1.85032772     1.94580635       adf.R=1.725
      5      H    -0.16521562     0.97398776    -2.06768443       adf.R=1.350
      6      O    -1.21136710    -2.31916220    -0.61281673       adf.R=1.517
      7      H    -1.28930675    -2.39738535    -1.56994856       adf.R=1.350
      8      H    -0.95002332    -3.18857025    -0.29003902       adf.R=1.350
      9      H     1.53162434     1.83607673     1.85587559       adf.R=1.350
     10      O    -0.08597100    -1.29919712     1.98226741       adf.R=1.517
     11     Cl     1.96484525    -1.26810600    -0.63302338       adf.R=1.725
     12      H    -3.24810188     0.00213173     1.37969738       adf.R=1.350
     13      H     2.52794270     0.89689917     1.11158561       adf.R=1.350
     14      O    -2.81004646    -0.48105470     0.67048102       adf.R=1.517
     15      H    -3.21675867    -1.35300971     0.62196320       adf.R=1.350
 
Total System Charge             0.00000
Bonding info available!
 
 *** GO1_GOStep11 ***

 SOLVATION
-------------------------------------------

  The Delley construction of COSMO surface surface is calculated

       Division Level for Surface Triangles (NDIV)                  3
       Final Division Level for Triangles (NFDIV)                   1
       Radius of the Solvent (RSOL)                           1.93000 angstr
  Dielectric Constant (EPSL)                                 78.39000

       COSMO equation is solved iteratively-               conjugate-gradient

       Maximun of Iterations for Charges (NCIX)                  1000
       Criterion for Charge convergence (CCNV)                1.0E-08

  COSMO charges included variationally in SCF

       COSMO included at every SCF cycle

  Geometry-dependent empirical factor                         0.00000

  C-Matrix calculated in cspmtx

  In cspmtx, C-Matrix calculated using fitted potential

-------------------------------------------



 -------------------------------------------
  COSMO surface
  Area             =          630.321
  Volume           =         1146.823
  Number of Points =         1512
 -------------------------------------------



 ======================
 RI Hartree-Fock Scheme
 ======================
  
 Fit Set Quality     : GOOD
 Threshold Quality   : GOOD
 Integration Quality : GOOD
 Fit Generation Method : AUTO
 Response Quality    : DEFAULT
 Is Range Separated  :  F
 
 RIHartreeFock Dependency: number of modified vectors:           9
 cosmo_calcen: 0.5 (esolb+esolc) (Hartrees) =   -0.059481

 Solvation energy (screening term,uncorrected) =    -37.324910 kcal/mol

 Solvation energy (dispersion and cavitation terms) =      1.178651 kcal/mol
 Solvation Energy Contributions (Hartrees)
          esola   esolb+esolc
     0.05948102   -0.11896205
 esol last cycle   -0.05948102
  
 Hartree-Fock exchange energy:   -565.366643829967     
 cosmo_calcen: 0.5 (esolb+esolc) (Hartrees) =   -0.059481

 Solvation energy (screening term,uncorrected) =    -37.324903 kcal/mol

 Solvation energy (dispersion and cavitation terms) =      1.178651 kcal/mol
 Solvation Energy Contributions (Hartrees)
          esola   esolb+esolc
     0.05948101   -0.11896203
 esol last cycle   -0.05948101

 Energy gradients wrt nuclear displacements
 ==========================================

     Atom      Cartesian (a.u./angstrom)
                 X         Y         Z
 ----------------------------------------
     1 Pa    0.000908 -0.001736  0.003713
     2 O    -0.000007 -0.000204  0.000190
     3 O    -0.000541  0.001356 -0.001980
     4 Cl    0.000204 -0.000405 -0.000338
     5 H    -0.000062 -0.000249  0.000232
     6 O    -0.000033 -0.000332 -0.000250
     7 H     0.000024  0.000057  0.000212
     8 H    -0.000004  0.000277 -0.000076
     9 H     0.000036 -0.000122 -0.000162
    10 O    -0.000212  0.001122 -0.001750
    11 Cl   -0.000495  0.000100  0.000255
    12 H    -0.000021 -0.000154 -0.000215
    13 H    -0.000201  0.000052  0.000022
    14 O     0.000319  0.000040  0.000249
    15 H     0.000085  0.000199 -0.000104
 ----------------------------------------
 Mulliken charges used for AMS results%charges...

 dE(predicted):    -0.80778E-05, dE(actual):    -0.16580E-04, Trust radius:    0.200000, all in a.u.
 
----------------------------------------------------------------------
Geometry Convergence after Step  11       (Hartree/Angstrom,Angstrom)
----------------------------------------------------------------------
current energy                               -3.91829848 Hartree
energy change                      -0.00001658     0.00001500    F
constrained gradient max            0.00371242     0.00010000    F
constrained gradient rms            0.00081049     0.00006667    F
gradient max                        0.00371242
gradient rms                        0.00081049
cart. step max                      0.00602419     0.00100000    F
cart. step rms                      0.00224066     0.00066667    F
 
 
--------
Geometry
--------
Formula: H7Cl2O5Pa
Atoms
  Index Symbol   x (angstrom)   y (angstrom)   z (angstrom)
      1     Pa    -0.28620274    -0.26131263     0.49367227       adf.R=2.200
      2      O     1.63104586     1.24795694     1.09978656       adf.R=1.517
      3      O    -0.64290809     0.72507221    -1.26650674       adf.R=1.517
      4     Cl    -1.24420139     1.84985282     1.94746589       adf.R=1.725
      5      H    -0.17069253     0.97838107    -2.06811506       adf.R=1.350
      6      O    -1.20838315    -2.32019907    -0.61366020       adf.R=1.517
      7      H    -1.29068892    -2.39891857    -1.57039115       adf.R=1.350
      8      H    -0.95196355    -3.19069123    -0.28978433       adf.R=1.350
      9      H     1.53051771     1.83778796     1.85526315       adf.R=1.350
     10      O    -0.08531863    -1.30183108     1.98086273       adf.R=1.517
     11     Cl     1.96985765    -1.26775104    -0.63316260       adf.R=1.725
     12      H    -3.24731440     0.00815592     1.37534928       adf.R=1.350
     13      H     2.52880724     0.89847367     1.11246239       adf.R=1.350
     14      O    -2.80950760    -0.48108631     0.67005598       adf.R=1.517
     15      H    -3.21898994    -1.35198952     0.62567124       adf.R=1.350
 
Total System Charge             0.00000
Bonding info available!
 
 *** GO1_GOStep12 ***

 SOLVATION
-------------------------------------------

  The Delley construction of COSMO surface surface is calculated

       Division Level for Surface Triangles (NDIV)                  3
       Final Division Level for Triangles (NFDIV)                   1
       Radius of the Solvent (RSOL)                           1.93000 angstr
  Dielectric Constant (EPSL)                                 78.39000

       COSMO equation is solved iteratively-               conjugate-gradient

       Maximun of Iterations for Charges (NCIX)                  1000
       Criterion for Charge convergence (CCNV)                1.0E-08

  COSMO charges included variationally in SCF

       COSMO included at every SCF cycle

  Geometry-dependent empirical factor                         0.00000

  C-Matrix calculated in cspmtx

  In cspmtx, C-Matrix calculated using fitted potential

-------------------------------------------



 -------------------------------------------
  COSMO surface
  Area             =          630.201
  Volume           =         1146.152
  Number of Points =         1512
 -------------------------------------------



 ======================
 RI Hartree-Fock Scheme
 ======================
  
 Fit Set Quality     : GOOD
 Threshold Quality   : GOOD
 Integration Quality : GOOD
 Fit Generation Method : AUTO
 Response Quality    : DEFAULT
 Is Range Separated  :  F
 
 RIHartreeFock Dependency: number of modified vectors:           9
 cosmo_calcen: 0.5 (esolb+esolc) (Hartrees) =   -0.059636

 Solvation energy (screening term,uncorrected) =    -37.422138 kcal/mol

 Solvation energy (dispersion and cavitation terms) =      1.178427 kcal/mol
 Solvation Energy Contributions (Hartrees)
          esola   esolb+esolc
     0.05963597   -0.11927193
 esol last cycle   -0.05963597
  
 Hartree-Fock exchange energy:   -565.366777209103     
 cosmo_calcen: 0.5 (esolb+esolc) (Hartrees) =   -0.059636

 Solvation energy (screening term,uncorrected) =    -37.422131 kcal/mol

 Solvation energy (dispersion and cavitation terms) =      1.178427 kcal/mol
 Solvation Energy Contributions (Hartrees)
          esola   esolb+esolc
     0.05963596   -0.11927191
 esol last cycle   -0.05963596

 Energy gradients wrt nuclear displacements
 ==========================================

     Atom      Cartesian (a.u./angstrom)
                 X         Y         Z
 ----------------------------------------
     1 Pa    0.000402 -0.001080  0.002363
     2 O     0.000048 -0.000236  0.000293
     3 O    -0.000397  0.000561 -0.000658
     4 Cl    0.000057 -0.000084 -0.000067
     5 H     0.000037 -0.000201  0.000065
     6 O     0.000052 -0.000307 -0.000294
     7 H    -0.000068  0.000138  0.000104
     8 H     0.000027  0.000168  0.000077
     9 H    -0.000057 -0.000017 -0.000137
    10 O    -0.000191  0.001039 -0.001680
    11 Cl   -0.000131 -0.000051  0.000065
    12 H    -0.000072 -0.000007 -0.000168
    13 H    -0.000097 -0.000010 -0.000062
    14 O     0.000326 -0.000002  0.000274
    15 H     0.000062  0.000088 -0.000173
 ----------------------------------------
 Mulliken charges used for AMS results%charges...

 dE(predicted):    -0.63726E-05, dE(actual):    -0.10901E-04, Trust radius:    0.200000, all in a.u.
 
----------------------------------------------------------------------
Geometry Convergence after Step  12       (Hartree/Angstrom,Angstrom)
----------------------------------------------------------------------
current energy                               -3.91830938 Hartree
energy change                      -0.00001090     0.00001500    T
constrained gradient max            0.00236191     0.00010000    F
constrained gradient rms            0.00052747     0.00006667    F
gradient max                        0.00236191
gradient rms                        0.00052747
cart. step max                      0.00365471     0.00100000    F
cart. step rms                      0.00138373     0.00066667    F
 
 
--------
Geometry
--------
Formula: H7Cl2O5Pa
Atoms
  Index Symbol   x (angstrom)   y (angstrom)   z (angstrom)
      1     Pa    -0.28596688    -0.26258734     0.49286256       adf.R=2.200
      2      O     1.63035256     1.24780928     1.09987771       adf.R=1.517
      3      O    -0.64050203     0.72282110    -1.26585950       adf.R=1.517
      4     Cl    -1.24511160     1.84927897     1.94776460       adf.R=1.725
      5      H    -0.17108784     0.98203578    -2.06732974       adf.R=1.350
      6      O    -1.20747962    -2.32100198    -0.61445180       adf.R=1.517
      7      H    -1.29127884    -2.40006936    -1.57107632       adf.R=1.350
      8      H    -0.95432166    -3.19229230    -0.29005281       adf.R=1.350
      9      H     1.52943855     1.83858860     1.85462533       adf.R=1.350
     10      O    -0.08514499    -1.30335009     1.98094700       adf.R=1.517
     11     Cl     1.97283999    -1.26734510    -0.63328468       adf.R=1.725
     12      H    -3.24622676     0.01123883     1.37379504       adf.R=1.350
     13      H     2.52879890     0.89995422     1.11202036       adf.R=1.350
     14      O    -2.80974695    -0.48132321     0.66990184       adf.R=1.517
     15      H    -3.22050529    -1.35185623     0.62922981       adf.R=1.350
 
Total System Charge             0.00000
Bonding info available!
 
 *** GO1_GOStep13 ***

 SOLVATION
-------------------------------------------

  The Delley construction of COSMO surface surface is calculated

       Division Level for Surface Triangles (NDIV)                  3
       Final Division Level for Triangles (NFDIV)                   1
       Radius of the Solvent (RSOL)                           1.93000 angstr
  Dielectric Constant (EPSL)                                 78.39000

       COSMO equation is solved iteratively-               conjugate-gradient

       Maximun of Iterations for Charges (NCIX)                  1000
       Criterion for Charge convergence (CCNV)                1.0E-08

  COSMO charges included variationally in SCF

       COSMO included at every SCF cycle

  Geometry-dependent empirical factor                         0.00000

  C-Matrix calculated in cspmtx

  In cspmtx, C-Matrix calculated using fitted potential

-------------------------------------------



 -------------------------------------------
  COSMO surface
  Area             =          631.042
  Volume           =         1146.715
  Number of Points =         1516
 -------------------------------------------



 ======================
 RI Hartree-Fock Scheme
 ======================
  
 Fit Set Quality     : GOOD
 Threshold Quality   : GOOD
 Integration Quality : GOOD
 Fit Generation Method : AUTO
 Response Quality    : DEFAULT
 Is Range Separated  :  F
 
 RIHartreeFock Dependency: number of modified vectors:           9
 cosmo_calcen: 0.5 (esolb+esolc) (Hartrees) =   -0.059754

 Solvation energy (screening term,uncorrected) =    -37.496267 kcal/mol

 Solvation energy (dispersion and cavitation terms) =      1.180000 kcal/mol
 Solvation Energy Contributions (Hartrees)
          esola   esolb+esolc
     0.05975410   -0.11950820
 esol last cycle   -0.05975410
  
 Hartree-Fock exchange energy:   -565.366150450120     
 cosmo_calcen: 0.5 (esolb+esolc) (Hartrees) =   -0.059754

 Solvation energy (screening term,uncorrected) =    -37.496259 kcal/mol

 Solvation energy (dispersion and cavitation terms) =      1.180000 kcal/mol
 Solvation Energy Contributions (Hartrees)
          esola   esolb+esolc
     0.05975409   -0.11950817
 esol last cycle   -0.05975409

 Energy gradients wrt nuclear displacements
 ==========================================

     Atom      Cartesian (a.u./angstrom)
                 X         Y         Z
 ----------------------------------------
     1 Pa   -0.000084  0.000004  0.000415
     2 O     0.000026 -0.000262  0.000244
     3 O    -0.000256  0.000017  0.000285
     4 Cl   -0.000036  0.000105  0.000102
     5 H     0.000130 -0.000165 -0.000044
     6 O     0.000049 -0.000237 -0.000197
     7 H    -0.000078  0.000132 -0.000014
     8 H     0.000018  0.000074  0.000097
     9 H    -0.000067  0.000067 -0.000057
    10 O    -0.000058  0.000355 -0.000657
    11 Cl    0.000117 -0.000119 -0.000068
    12 H    -0.000122  0.000056 -0.000109
    13 H     0.000009 -0.000030 -0.000070
    14 O     0.000340  0.000005  0.000245
    15 H     0.000012 -0.000002 -0.000173
 ----------------------------------------
 Mulliken charges used for AMS results%charges...

 dE(predicted):    -0.32417E-05, dE(actual):    -0.32693E-05, Trust radius:    0.200000, all in a.u.
 
----------------------------------------------------------------------
Geometry Convergence after Step  13       (Hartree/Angstrom,Angstrom)
----------------------------------------------------------------------
current energy                               -3.91831265 Hartree
energy change                      -0.00000327     0.00001500    T
constrained gradient max            0.00065053     0.00010000    F
constrained gradient rms            0.00018262     0.00006667    F
gradient max                        0.00065053
gradient rms                        0.00018262
cart. step max                      0.00308358     0.00100000    F
cart. step rms                      0.00097858     0.00066667    F
 
 
--------
Geometry
--------
Formula: H7Cl2O5Pa
Atoms
  Index Symbol   x (angstrom)   y (angstrom)   z (angstrom)
      1     Pa    -0.28602615    -0.26347216     0.49232146       adf.R=2.200
      2      O     1.62964238     1.24825312     1.09906334       adf.R=1.517
      3      O    -0.63835181     0.72237716    -1.26578040       adf.R=1.517
      4     Cl    -1.24585277     1.84876014     1.94704210       adf.R=1.725
      5      H    -0.16930198     0.98511936    -2.06633775       adf.R=1.350
      6      O    -1.20773162    -2.32159121    -0.61492359       adf.R=1.517
      7      H    -1.29129955    -2.40093757    -1.57158304       adf.R=1.350
      8      H    -0.95606191    -3.19331463    -0.29041936       adf.R=1.350
      9      H     1.52861810     1.83854222     1.85421583       adf.R=1.350
     10      O    -0.08536925    -1.30380899     1.98157059       adf.R=1.517
     11     Cl     1.97402215    -1.26731276    -0.63304093       adf.R=1.725
     12      H    -3.24502298     0.01211218     1.37404337       adf.R=1.350
     13      H     2.52831070     0.90089237     1.11112601       adf.R=1.350
     14      O    -2.81025328    -0.48157871     0.66983006       adf.R=1.517
     15      H    -3.22126450    -1.35213936     0.63184173       adf.R=1.350
 
Total System Charge             0.00000
Bonding info available!
 
 *** GO1_GOStep14 ***

 SOLVATION
-------------------------------------------

  The Delley construction of COSMO surface surface is calculated

       Division Level for Surface Triangles (NDIV)                  3
       Final Division Level for Triangles (NFDIV)                   1
       Radius of the Solvent (RSOL)                           1.93000 angstr
  Dielectric Constant (EPSL)                                 78.39000

       COSMO equation is solved iteratively-               conjugate-gradient

       Maximun of Iterations for Charges (NCIX)                  1000
       Criterion for Charge convergence (CCNV)                1.0E-08

  COSMO charges included variationally in SCF

       COSMO included at every SCF cycle

  Geometry-dependent empirical factor                         0.00000

  C-Matrix calculated in cspmtx

  In cspmtx, C-Matrix calculated using fitted potential

-------------------------------------------



 -------------------------------------------
  COSMO surface
  Area             =          631.179
  Volume           =         1146.888
  Number of Points =         1516
 -------------------------------------------



 ======================
 RI Hartree-Fock Scheme
 ======================
  
 Fit Set Quality     : GOOD
 Threshold Quality   : GOOD
 Integration Quality : GOOD
 Fit Generation Method : AUTO
 Response Quality    : DEFAULT
 Is Range Separated  :  F
 
 RIHartreeFock Dependency: number of modified vectors:           9
 cosmo_calcen: 0.5 (esolb+esolc) (Hartrees) =   -0.059799

 Solvation energy (screening term,uncorrected) =    -37.524347 kcal/mol

 Solvation energy (dispersion and cavitation terms) =      1.180255 kcal/mol
 Solvation Energy Contributions (Hartrees)
          esola   esolb+esolc
     0.05979885   -0.11959769
 esol last cycle   -0.05979885
  
 Hartree-Fock exchange energy:   -565.365528270218     
 cosmo_calcen: 0.5 (esolb+esolc) (Hartrees) =   -0.059799

 Solvation energy (screening term,uncorrected) =    -37.524339 kcal/mol

 Solvation energy (dispersion and cavitation terms) =      1.180255 kcal/mol
 Solvation Energy Contributions (Hartrees)
          esola   esolb+esolc
     0.05979883   -0.11959767
 esol last cycle   -0.05979883

 Energy gradients wrt nuclear displacements
 ==========================================

     Atom      Cartesian (a.u./angstrom)
                 X         Y         Z
 ----------------------------------------
     1 Pa   -0.000317  0.000595 -0.000676
     2 O    -0.000019 -0.000255  0.000162
     3 O    -0.000166 -0.000108  0.000534
     4 Cl   -0.000066  0.000161  0.000150
     5 H     0.000160 -0.000149 -0.000065
     6 O    -0.000004 -0.000118 -0.000096
     7 H    -0.000061  0.000067 -0.000058
     8 H     0.000020 -0.000002  0.000045
     9 H    -0.000024  0.000079 -0.000011
    10 O     0.000040 -0.000180  0.000179
[...]
    15     H      -0.004661  -0.010667  -0.000813
 
 Mode:    43      Frequency (cm-1):     3883.0129     Intensity (km/mol):      237.5121
 Index  Atom      ---- Displacements (x/y/z) ----
     1    Pa      -0.000002   0.000001   0.000000
     2     O      -0.046517   0.042566   0.033254
     3     O      -0.000022  -0.000025   0.000060
     4    Cl      -0.000021   0.000031   0.000032
     5     H       0.000549   0.000248  -0.000857
     6     O       0.000732  -0.001802   0.002898
     7     H      -0.002747  -0.003056  -0.033966
     8     H      -0.008893   0.031699  -0.011967
     9     H       0.066397  -0.414971  -0.540749
    10     O       0.000013  -0.000001  -0.000012
    11    Cl      -0.000035   0.000027   0.000018
    12     H      -0.002556   0.002817   0.004101
    13     H       0.673951  -0.262786   0.011221
    14     O      -0.000049  -0.000628  -0.000268
    15     H       0.003376   0.007305   0.000202
 
 Mode:    44      Frequency (cm-1):     3884.2583     Intensity (km/mol):      263.1622
 Index  Atom      ---- Displacements (x/y/z) ----
     1    Pa       0.000002  -0.000004   0.000006
     2     O       0.002223  -0.002013  -0.001560
     3     O      -0.000073  -0.000062   0.000127
     4    Cl      -0.000001   0.000003   0.000002
     5     H       0.001049   0.000649  -0.002093
     6     O       0.014861  -0.036296   0.058355
     7     H      -0.056276  -0.061528  -0.686200
     8     H      -0.179761   0.638601  -0.241191
     9     H      -0.003107   0.019489   0.025355
    10     O      -0.000006   0.000024  -0.000005
    11    Cl       0.000003  -0.000001  -0.000002
    12     H       0.038556  -0.044084  -0.063431
    13     H      -0.032307   0.012615  -0.000560
    14     O       0.000113   0.008221   0.004116
    15     H      -0.040300  -0.086692  -0.001933
 
 Mode:    45      Frequency (cm-1):     3885.0513     Intensity (km/mol):      257.8350
 Index  Atom      ---- Displacements (x/y/z) ----
     1    Pa       0.000001  -0.000002   0.000001
     2     O       0.000735  -0.000688  -0.000551
     3     O       0.000027   0.000031  -0.000067
     4    Cl       0.000015  -0.000032  -0.000033
     5     H      -0.000495  -0.000271   0.000774
     6     O       0.001886  -0.004654   0.007654
     7     H      -0.007461  -0.008205  -0.090964
     8     H      -0.022429   0.081175  -0.030989
     9     H      -0.001166   0.006875   0.008937
    10     O       0.000000   0.000003   0.000018
    11    Cl       0.000004  -0.000002  -0.000003
    12     H      -0.297108   0.339713   0.488299
    13     H      -0.010419   0.004098  -0.000170
    14     O      -0.000779  -0.063086  -0.031603
    15     H       0.308567   0.663839   0.014818

 Vibrational polarizability tensor (a.u.):
                  X                   Y                   Z
 X            3793.85846           248.59054           388.16410
 Y             248.59054          4260.02470          -378.30557
 Z             388.16410          -378.30557          2744.39460

 Isotropic =      3599.4    atomic units

PES point character: Geometry corresponds to a local minimum on the PES.




 ============================
 Statistical Thermal Analysis  ***  ideal gas assumed  ***
 ============================
  
 Pressure:                  1.000000 atm.
 Temperature:             298.150000 K



 Moments of Inertia [amu*bohr^2] and principal axis
 ==================================================

        1667.3743       2403.6463       3146.4820
 ------------------------------------------------
          -0.6432          0.7506          0.1514
           0.5882          0.6109         -0.5300
           0.4903          0.2518          0.8344


 The rotational contribution to the molecular entropy includes
 a term, dependent on the symmetry number sigma. The results 
 reported below were computed using sigma = 1, determined from
 the point group symmetry of the input geometry (NOSYM). 
 If this is not the correct symmetry, try symmetrizing the molecule before
 running the calculation (note: linear molecules should be aligned along one
 of the Cartesian axes).
 Contributions from frequencies below 20 1/cm are not included in vibrational sums.
 Their contributions, if any, are reported separately.


     Temp                                                        Transl      Rotat     Vibrat     Total
     ----                                                        ------      -----     ------     -----

     298.15   Entropy (cal/mol-K):                               43.760     30.912     62.758    137.429
              Nuclear Internal Energy (kcal/mol):                 0.889      0.889     65.254     67.031
              Constant Volume Heat Capacity (cal/mol-K):          2.981      2.981     49.710     55.671
          (c) Constant Volume Heat Capacity (cal/mol-K):          2.981      2.981     44.449     50.410

       Summary of energy terms
                                                   hartree              eV         kcal/mol           kJ/mol
                                      --------------------     -----------       ----------      -----------
      Energy from Engine:               -3.918323442302117       -106.6230         -2458.79        -10287.56
      Nuclear Internal Energy:           0.106820774272049          2.9067            67.03           280.46
  (c) Nuclear Internal Energy:           0.104073966344851          2.8320            65.31           273.25
      Internal Energy U:                -3.811502668030068       -103.7163         -2391.75        -10007.10
      pV/n = RT:                         0.000944186013486          0.0257             0.59             2.48
      Enthalpy H:                       -3.810558482016582       -103.6906         -2391.16        -10004.62
      -T*S:                             -0.065297160441791         -1.7768           -40.97          -171.44
  (c) -T*S:                             -0.063489920102681         -1.7276           -39.84          -166.69
      Gibbs free energy:                -3.875855642458373       -105.4674         -2432.14        -10176.06
 
 
 
  (c) The properties marked with this symbol have been corrected using 'low vibrational frequency free rotor
      interpolation corrections'. For those terms all positive frequencies are used (also ones below 20 1/cm),
      but the contribution to the partition function of small vibrational frequencies is modified as described
      in the following paper:
      S. Grimme, 'Supramolecular Binding Thermodynamics by Dispersion-Corrected Density Functional Theory'
      (Chem. Eur. J. 2012, 18, 9955-9964)
      Configuration: Dampener Frequency          :   100.000 1/cm
                     Dampener Alpha              :     4.000
                     Averaging Moment of Inertia : 1.000E-44 kg m2

--------------
Atomic charges
--------------
  Index   Atom    Charge
      1     Pa    2.2450
      2      O   -0.4070
      3      O   -0.6283
      4     Cl   -0.6094
      5      H    0.1226
      6      O   -0.4300
      7      H    0.2551
      8      H    0.2649
      9      H    0.2482
     10      O   -0.7894
     11     Cl   -0.5986
     12      H    0.2512
     13      H    0.2481
     14      O   -0.4211
     15      H    0.2486


Dipole moment vector    (Debye):    -4.17368255   -3.83302473   -4.11051626
              magnitude (Debye):     7.00057487


-----------------------
Molecular orbitals info
-----------------------
n orbitals:              410
n spin:                    1

Note: only printing virtual orbitals with
      energy smaller than HOMO + 100. eV

HOMO (eV):              -8.2978
LUMO (eV):              -1.6323
HOMO-LUMO gap (eV):      6.6656

   Index   Energy (eV)    Occupation
     273       91.0644         0.000       
     272       89.9226         0.000       
     271       88.8156         0.000       
     270       87.9398         0.000       
     269       87.5609         0.000       
     268       86.2396         0.000       
     267       85.8490         0.000       
     266       85.0434         0.000       
     265       85.0074         0.000       
     264       84.4668         0.000       
     263       83.3640         0.000       
     262       82.7054         0.000       
     261       81.8644         0.000       
     260       81.6375         0.000       
     259       80.5807         0.000       
     258       79.1492         0.000       
     257       77.7471         0.000       
     256       77.3240         0.000       
     255       76.9211         0.000       
     254       76.2908         0.000       
     253       75.8004         0.000       
     252       74.6476         0.000       
     251       73.8644         0.000       
     250       73.0949         0.000       
     249       72.8208         0.000       
     248       72.1986         0.000       
     247       71.9641         0.000       
     246       71.2571         0.000       
     245       70.8099         0.000       
     244       70.4887         0.000       
     243       70.1177         0.000       
     242       69.7564         0.000       
     241       68.5662         0.000       
     240       68.4049         0.000       
     239       67.0818         0.000       
     238       64.3802         0.000       
     237       63.8367         0.000       
     236       63.5000         0.000       
     235       62.7157         0.000       
     234       61.4958         0.000       
     233       60.4388         0.000       
     232       59.8615         0.000       
     231       59.5137         0.000       
     230       57.8806         0.000       
     229       56.0020         0.000       
     228       55.7419         0.000       
     227       55.2183         0.000       
     226       54.7650         0.000       
     225       53.6137         0.000       
     224       52.7975         0.000       
     223       52.0521         0.000       
     222       51.1283         0.000       
     221       50.5242         0.000       
     220       49.5008         0.000       
     219       48.7760         0.000       
     218       47.2061         0.000       
     217       47.1183         0.000       
     216       46.9598         0.000       
     215       46.5048         0.000       
     214       45.8643         0.000       
     213       44.0580         0.000       
     212       43.5844         0.000       
     211       42.8272         0.000       
     210       42.6815         0.000       
     209       42.0219         0.000       
     208       41.4133         0.000       
     207       40.9620         0.000       
     206       40.2920         0.000       
     205       39.8261         0.000       
     204       39.2494         0.000       
     203       38.9960         0.000       
     202       38.9161         0.000       
     201       38.5206         0.000       
     200       38.3241         0.000       
     199       38.1814         0.000       
     198       37.8688         0.000       
     197       37.6812         0.000       
     196       37.4066         0.000       
     195       37.1905         0.000       
     194       37.0378         0.000       
     193       36.6196         0.000       
     192       36.4352         0.000       
     191       36.1838         0.000       
     190       35.8472         0.000       
     189       35.8082         0.000       
     188       35.6149         0.000       
     187       35.5529         0.000       
     186       35.2809         0.000       
     185       34.9247         0.000       
     184       34.1088         0.000       
     183       33.8126         0.000       
     182       33.5820         0.000       
     181       33.2209         0.000       
     180       32.2656         0.000       
     179       31.9677         0.000       
     178       31.0588         0.000       
     177       30.2247         0.000       
     176       29.4318         0.000       
     175       29.1770         0.000       
     174       28.0625         0.000       
     173       27.4325         0.000       
     172       26.9002         0.000       
     171       26.0575         0.000       
     170       25.3975         0.000       
     169       24.5907         0.000       
     168       24.1176         0.000       
     167       23.4545         0.000       
     166       22.7113         0.000       
     165       22.2598         0.000       
     164       21.8794         0.000       
     163       21.3012         0.000       
     162       20.9765         0.000       
     161       19.9522         0.000       
     160       19.8580         0.000       
     159       19.5727         0.000       
     158       19.2662         0.000       
     157       19.0206         0.000       
     156       18.7358         0.000       
     155       18.0579         0.000       
     154       17.8998         0.000       
     153       17.2900         0.000       
     152       17.0296         0.000       
     151       16.6158         0.000       
     150       16.5820         0.000       
     149       16.2935         0.000       
     148       15.7557         0.000       
     147       15.4950         0.000       
     146       15.2727         0.000       
     145       15.0730         0.000       
     144       14.7422         0.000       
     143       14.5336         0.000       
     142       14.3411         0.000       
     141       14.2068         0.000       
     140       13.8940         0.000       
     139       13.7606         0.000       
     138       13.5669         0.000       
     137       13.4117         0.000       
     136       12.7825         0.000       
     135       12.6298         0.000       
     134       12.3057         0.000       
     133       12.0585         0.000       
     132       11.8562         0.000       
     131       11.5065         0.000       
     130       11.1135         0.000       
     129       10.7038         0.000       
     128       10.5334         0.000       
     127       10.1064         0.000       
     126        9.8759         0.000       
     125        9.6820         0.000       
     124        9.5427         0.000       
     123        9.2364         0.000       
     122        9.0856         0.000       
     121        8.6392         0.000       
     120        8.0482         0.000       
     119        7.9776         0.000       
     118        7.7905         0.000       
     117        7.2266         0.000       
     116        6.8789         0.000       
     115        6.4235         0.000       
     114        5.6854         0.000       
     113        5.4860         0.000       
     112        5.2436         0.000       
     111        4.4907         0.000       
     110        4.2291         0.000       
     109        3.7205         0.000       
     108        3.5534         0.000       
     107        3.4648         0.000       
     106        2.5215         0.000       
     105        2.3506         0.000       
     104        2.3032         0.000       
     103        2.1371         0.000       
     102        2.1169         0.000       
     101        2.0286         0.000       
     100        1.8166         0.000       
      99        1.7043         0.000       
      98        1.4796         0.000       
      97        1.2197         0.000       
      96        0.6863         0.000       
      95        0.5485         0.000       
      94        0.3460         0.000       
      93       -0.3411         0.000       
      92       -0.7179         0.000       
      91       -0.8913         0.000       
      90       -1.4958         0.000       
      89       -1.5475         0.000       
      88       -1.6155         0.000       
      87       -1.6323         0.000 < LUMO
      86       -8.2978         2.000 < HOMO
      85       -8.3808         2.000       
      84       -8.5436         2.000       
      83       -8.5821         2.000       
      82       -8.7162         2.000       
      81       -8.9917         2.000       
      80       -9.4729         2.000       
      79       -9.8443         2.000       
      78       -9.9337         2.000       
      77      -10.2094         2.000       
      76      -10.5501         2.000       
      75      -10.7684         2.000       
      74      -10.8688         2.000       
      73      -11.0313         2.000       
      72      -12.7737         2.000       
      71      -12.9488         2.000       
      70      -13.5337         2.000       
      69      -13.9340         2.000       
      68      -16.2517         2.000       
      67      -16.3278         2.000       
      66      -16.3884         2.000       
      65      -21.1857         2.000       
      64      -21.2716         2.000       
      63      -21.5821         2.000       
      62      -25.2720         2.000       
      61      -25.6520         2.000       
      60      -27.3937         2.000       
      59      -29.7335         2.000       
      58      -29.8208         2.000       
      57      -30.0675         2.000       
      56      -30.5403         2.000       
      55      -50.1293         2.000       
      54      -99.8662         2.000       
      53      -99.9145         2.000       
      52      -99.9254         2.000       
      51     -100.0538         2.000       
      50     -100.0547         2.000       
      49     -196.0614         2.000       
      48     -196.0697         2.000       
      47     -196.0720         2.000       
      46     -196.0796         2.000       
      45     -196.0973         2.000       
      44     -196.1066         2.000       
      43     -206.9552         2.000       
      42     -207.3060         2.000       
      41     -207.3182         2.000       
      40     -259.6267         2.000       
      39     -259.6366         2.000       
      38     -305.7081         2.000       
      37     -360.8961         2.000       
      36     -360.9378         2.000       
      35     -360.9474         2.000       
      34     -361.1219         2.000       
      33     -361.1233         2.000       
      32     -361.3127         2.000       
      31     -361.3137         2.000       
      30     -522.7186         2.000       
      29     -523.4494         2.000       
      28     -524.4069         2.000       
      27     -524.4659         2.000       
      26     -524.6349         2.000       
      25     -712.7008         2.000       
      24     -712.8881         2.000       
      23     -712.8988         2.000       
      22     -713.1555         2.000       
      21     -713.1579         2.000       
      20    -1040.9662         2.000       
      19    -1041.3948         2.000       
      18    -1041.4120         2.000       
      17    -1359.4357         2.000       
      16    -2775.8095         2.000       
      15    -2775.8193         2.000       
      14    -3484.6186         2.000       
      13    -3484.6918         2.000       
      12    -3484.6956         2.000       
      11    -3484.8141         2.000       
      10    -3484.8151         2.000       
       9    -4346.8124         2.000       
       8    -4347.0526         2.000       
       7    -4347.0607         2.000       
       6    -5318.0352         2.000       
       5   -17560.9924         2.000       
       4   -17561.0264         2.000       
       3   -17561.0276         2.000       
       2   -21036.8148         2.000       
       1  -112698.6433         2.000       

Final PES point is a local minimum. Geometry optimization successful!


AMS application finished. Exiting.
NORMAL TERMINATION
     Total cpu time:   51087.65
  Total system time:     854.53
 Total elapsed time:   51954.07
