

 Parallel Execution: Process Information
 ==============================================================================
 Rank   Node Name                              NodeID   MyNodeRank  NodeMaster
    0   u-0-11.local                              0          0          0
    1   u-0-11.local                              0          1         -1
    2   u-0-11.local                              0          2         -1
    3   u-0-11.local                              0          3         -1
    4   u-0-11.local                              1          0          1
    5   u-0-11.local                              1          1         -1
    6   u-0-11.local                              1          2         -1
    7   u-0-11.local                              1          3         -1
    8   u-0-11.local                              2          0          2
    9   u-0-11.local                              2          1         -1
   10   u-0-11.local                              2          2         -1
   11   u-0-11.local                              2          3         -1
   12   u-0-11.local                              3          0          3
   13   u-0-11.local                              3          1         -1
   14   u-0-11.local                              3          2         -1
   15   u-0-11.local                              3          3         -1
 ==============================================================================


May use up to 31200MB of RAM as shared memory on node 0
May use up to 31250MB of RAM as shared memory on node 1
May use up to 31250MB of RAM as shared memory on node 2
May use up to 31250MB of RAM as shared memory on node 3

 *******************************************************************************
 *                                                                             *
 *  --------------------------------                                           *
 *   Amsterdam Modeling Suite (AMS)              2023.104                      *
 *  --------------------------------                                           *
 *                                               r115785 2023-10-06            *
 *                                                                             *
 *                                                                             *
 *                              =================                              *
 *                              |               |                              *
 *                              |     A M S     |                              *
 *                              |               |                              *
 *                              =================                              *
 *                                                                             *
 *                                                                             *
 *   Online information and documentation:  https://www.scm.com/support/       *
 *   E-mail:  support@scm.com   info@scm.com                                   *
 *                                                                             *
 *   Scientific publications using AMS results must be properly referenced     *
 *   See the User Manuals (or the web site) for recommended citations          *
 *   The terms and conditions of the End User License Agreement apply to       *
 *   the use of AMS, https://www.scm.com/license-terms/                        *
 *                                                                             *
 **********************  x86_64_linux_intel / intelmpi  ************************
 
 Licensed to: Dr. Val?rie Vallet / Laboratoire PhLAM UMR 8523 / Villeneuve d'Ascq Cedex / FRANCE 2024-02-19 16:59:55
 SCM User ID: u10325
  
 AMS 2023.104  RunTime: Jul04-2024 09:46:54  ShM Nodes: 4  Procs: 16

 AMS jobname: pao_oh_cl_4h2o.SR.pbe0.tz2p.opt-freq-solvation-trans-180
 AMS jobid  : 338996168

 Start   directory: /home/shaaban/ams/PhD/geometries-exafs/pao_oh_cl_4h2o/PBE0/
 Results directory: /home/shaaban/ams/PhD/geometries-exafs/pao_oh_cl_4h2o/PBE0/pao_oh_cl_4h2o.SR.pbe0.tz2p.opt-freq-solvation-trans-180.results/
 Scratch directory: /state/partition2/shaaban/1021942.phlam-s-sakura/amstmp_pao_oh_cl_4h2o.SR.pbe0.tz2p.opt-freq-solvation-trans-180_kid0.338996168/


 Communication costs MPI_COMM_WORLD:      8.154 usec per message,   0.0054 usec per 8-byte item
 Communication costs for intra-node:      1.776 usec per message,   0.0039 usec per 8-byte item

 RNG seed: 806590937 -1232226928 1260956218 446242331 1254612762 -1338383745 -1801445796 376900032



                     *************************************************************************
                     *  ADF 2023.104  RunTime: Jul04-2024 09:46:54  ShM Nodes: 4  Procs: 16  *
                     *************************************************************************
  

       ***************************
       *  GEOMETRY OPTIMIZATION  *
       ***************************

Optimization Method                    Quasi Newton
Optimization Coordinates               Delocalized Coordinates
Optimize lattice                       F
 
 ------------------------------------------------------
 Convergence criteria (Hartree,Angstrom)
 ------------------------------------------------------
 Maximum gradient               0.000100000000
 Maximum rms gradient           0.000066666667
 Maximum step allowed           0.001000000000
 Maximum rms step allowed       0.000666666667
 Maximum energy change allowe   0.000017000000
 Maximum stress energy allowe   0.000500000000
 
Initial model Hessian                  Automatic Hessian
 
------------------------------------
Quasi-Newton Optimizer Parameters
------------------------------------
Hessian Update Method                  BFGS
Maximum number of steps                  250
First GDIIS cycle                          0
Maximum GDIIS vectors                      0
Trust radius (bohr)                        0.200000
Trust radius varies                        T
Constraints converged at all steps         T
Use projector                              T
 
 Rigid motions settings for: old optimizer
 Atomic rotations (x,y,z):     T T T
 Atomic translations (x,y,z):  T T T
 Tolerance:                   1.000000000000000E-006
 
--------
Geometry
--------
Formula: H9ClO6Pa
Atoms
  Index Symbol   x (angstrom)   y (angstrom)   z (angstrom)
      1     Pa    -0.33659338    -0.11534258     0.50755336       adf.R=2.200
      2      O     1.70250719     1.22299088     0.94818477       adf.R=1.517
      3     Cl    -0.72940440     1.49524400    -1.52254860       adf.R=1.725
      4      O    -1.05452955     1.58801812     1.47615714       adf.R=1.517
      5      H     2.59565577     0.86530375     0.90430694       adf.R=1.350
      6      O    -1.08494961    -2.22536893    -0.65864049       adf.R=1.517
      7      H    -1.17774832    -2.32832838    -1.61206884       adf.R=1.350
      8      H    -0.90973078    -3.10236597    -0.30044885       adf.R=1.350
      9      H     1.70938291     1.96177202     1.56559996       adf.R=1.350
     10      O    -0.06202058    -1.24113117     1.92657280       adf.R=1.517
     11      O     1.76166412    -1.19633275    -0.37788280       adf.R=1.517
     12      H     2.05977075    -1.16962797    -1.29362873       adf.R=1.350
     13      H     2.13769800    -1.99200383     0.01392234       adf.R=1.350
     14      O    -2.79697213    -0.42832179     0.52397388       adf.R=1.517
     15      H    -3.22483826    -1.27338399     0.34928937       adf.R=1.350
     16      H    -3.37822093     0.08544947     1.09426436       adf.R=1.350
     17      H    -1.27495026     1.95079646     2.33859964       adf.R=1.350
 
Total System Charge             1.00000
Bonding info available!
 
 
----------------
ADF Engine Input
----------------
 
 Basis
 Type TZ2P
 Core None
 End
 XC
 Hybrid PBE0
 End
 Solvation
 Surf Delley
 Solv name=Water cav0=0.0 cav1=0.0067639
 Charged method=CONJ
 C-Mat POT
 SCF VAR ALL
 CSMRSP
 End
 NumericalQuality Good
 

 Title: *** (NO TITLE) ***

 Using automatic Hessian for delocalized coordinates.
 *** GO1_GOStep1 ***

 SOLVATION
-------------------------------------------

  The Delley construction of COSMO surface surface is calculated

       Division Level for Surface Triangles (NDIV)                  3
       Final Division Level for Triangles (NFDIV)                   1
       Radius of the Solvent (RSOL)                           1.93000 angstr
  Dielectric Constant (EPSL)                                 78.39000

       COSMO equation is solved iteratively-               conjugate-gradient

       Maximun of Iterations for Charges (NCIX)                  1000
       Criterion for Charge convergence (CCNV)                1.0E-08

  COSMO charges included variationally in SCF

       COSMO included at every SCF cycle

  Geometry-dependent empirical factor                         0.00000

  C-Matrix calculated in cspmtx

  In cspmtx, C-Matrix calculated using fitted potential

-------------------------------------------



 -------------------------------------------
  COSMO surface
  Area             =          640.156
  Volume           =         1163.150
  Number of Points =         1536
 -------------------------------------------



 ======================
 RI Hartree-Fock Scheme
 ======================
  
 Fit Set Quality     : GOOD
 Threshold Quality   : GOOD
 Integration Quality : GOOD
 Fit Generation Method : AUTO
 Response Quality    : DEFAULT
 Is Range Separated  :  F
 
 RIHartreeFock Dependency: number of modified vectors:          11
 cosmo_calcen: 0.5 (esolb+esolc) (Hartrees) =   -0.129973

 Solvation energy (screening term,uncorrected) =    -81.558992 kcal/mol

 Solvation energy (dispersion and cavitation terms) =      1.197041 kcal/mol
 Solvation Energy Contributions (Hartrees)
          esola   esolb+esolc
     0.12997251   -0.25994503
 esol last cycle   -0.12997251
  
 Hartree-Fock exchange energy:   -546.368135286970     
 cosmo_calcen: 0.5 (esolb+esolc) (Hartrees) =   -0.129972

 Solvation energy (screening term,uncorrected) =    -81.558981 kcal/mol

 Solvation energy (dispersion and cavitation terms) =      1.197041 kcal/mol
 Solvation Energy Contributions (Hartrees)
          esola   esolb+esolc
     0.12997249   -0.25994499
 esol last cycle   -0.12997249

 Energy gradients wrt nuclear displacements
 ==========================================

     Atom      Cartesian (a.u./angstrom)
                 X         Y         Z
 ----------------------------------------
     1 Pa    0.006478 -0.014810 -0.003227
     2 O    -0.000931  0.000685 -0.000964
     3 Cl   -0.004535  0.009026  0.013729
     4 O    -0.001095  0.006644 -0.014473
     5 H    -0.000035  0.000014 -0.000229
     6 O     0.000116 -0.001705  0.002079
     7 H     0.000477  0.001381  0.000159
     8 H    -0.000296 -0.000165  0.000111
     9 H    -0.000007  0.000093  0.000163
    10 O     0.000715 -0.002533  0.001720
    11 O     0.000315 -0.001432  0.002080
    12 H    -0.001298  0.000607  0.000051
    13 H     0.000267  0.000067  0.000190
    14 O     0.000426  0.001069 -0.000723
    15 H    -0.000018 -0.000025 -0.000239
    16 H    -0.000165  0.000001  0.000141
    17 H    -0.000414  0.001082 -0.000566
 ----------------------------------------
 Mulliken charges used for AMS results%charges...
 
----------------------------------------------------------------------
Geometry Convergence after Step   1       (Hartree/Angstrom,Angstrom)
----------------------------------------------------------------------
current energy                               -4.26385241 Hartree
energy change                      -4.26385241     0.00001700    F
constrained gradient max            0.01481098     0.00010000    F
constrained gradient rms            0.00408513     0.00006667    F
gradient max                        0.01481098
gradient rms                        0.00408513
cart. step max                      0.09645177     0.00100000    F
cart. step rms                      0.02359351     0.00066667    F
 
 
--------
Geometry
--------
Formula: H9ClO6Pa
Atoms
  Index Symbol   x (angstrom)   y (angstrom)   z (angstrom)
      1     Pa    -0.34153811    -0.10329486     0.50795741       adf.R=2.200
      2      O     1.69957819     1.23245599     0.94888024       adf.R=1.517
      3     Cl    -0.68656395     1.39879223    -1.61498240       adf.R=1.725
      4      O    -1.05435482     1.57613972     1.52125726       adf.R=1.517
      5      H     2.59212108     0.87285344     0.90816507       adf.R=1.350
      6      O    -1.08808509    -2.21351486    -0.66000793       adf.R=1.517
      7      H    -1.18392490    -2.31945493    -1.61298302       adf.R=1.350
      8      H    -0.90969184    -3.08965680    -0.30146662       adf.R=1.350
      9      H     1.70662580     1.97286194     1.56420542       adf.R=1.350
     10      O    -0.06295923    -1.23741547     1.91784041       adf.R=1.517
     11      O     1.75682118    -1.18401855    -0.37935650       adf.R=1.517
     12      H     2.05929286    -1.15674206    -1.29387963       adf.R=1.350
     13      H     2.13046543    -1.98101850     0.01188366       adf.R=1.350
     14      O    -2.80188024    -0.41826433     0.52441800       adf.R=1.517
     15      H    -3.22901038    -1.26435527     0.35314754       adf.R=1.350
     16      H    -3.38347214     0.09719289     1.09267792       adf.R=1.350
     17      H    -1.26670335     1.91480677     2.39544943       adf.R=1.350
 
Total System Charge             1.00000
Bonding info available!
 
 *** GO1_GOStep2 ***

 SOLVATION
-------------------------------------------

  The Delley construction of COSMO surface surface is calculated

       Division Level for Surface Triangles (NDIV)                  3
       Final Division Level for Triangles (NFDIV)                   1
       Radius of the Solvent (RSOL)                           1.93000 angstr
  Dielectric Constant (EPSL)                                 78.39000

       COSMO equation is solved iteratively-               conjugate-gradient

       Maximun of Iterations for Charges (NCIX)                  1000
       Criterion for Charge convergence (CCNV)                1.0E-08

  COSMO charges included variationally in SCF

       COSMO included at every SCF cycle

  Geometry-dependent empirical factor                         0.00000

  C-Matrix calculated in cspmtx

  In cspmtx, C-Matrix calculated using fitted potential

-------------------------------------------



 -------------------------------------------
  COSMO surface
  Area             =          641.347
  Volume           =         1166.914
  Number of Points =         1534
 -------------------------------------------



 ======================
 RI Hartree-Fock Scheme
 ======================
  
 Fit Set Quality     : GOOD
 Threshold Quality   : GOOD
 Integration Quality : GOOD
 Fit Generation Method : AUTO
 Response Quality    : DEFAULT
 Is Range Separated  :  F
 
 RIHartreeFock Dependency: number of modified vectors:          11
 cosmo_calcen: 0.5 (esolb+esolc) (Hartrees) =   -0.127589

 Solvation energy (screening term,uncorrected) =    -80.063148 kcal/mol

 Solvation energy (dispersion and cavitation terms) =      1.199270 kcal/mol
 Solvation Energy Contributions (Hartrees)
          esola   esolb+esolc
     0.12758873   -0.25517747
 esol last cycle   -0.12758873
  
 Hartree-Fock exchange energy:   -546.366679559803     
 cosmo_calcen: 0.5 (esolb+esolc) (Hartrees) =   -0.127589

 Solvation energy (screening term,uncorrected) =    -80.063139 kcal/mol

 Solvation energy (dispersion and cavitation terms) =      1.199270 kcal/mol
 Solvation Energy Contributions (Hartrees)
          esola   esolb+esolc
     0.12758872   -0.25517744
 esol last cycle   -0.12758872

 Energy gradients wrt nuclear displacements
 ==========================================

     Atom      Cartesian (a.u./angstrom)
                 X         Y         Z
 ----------------------------------------
     1 Pa    0.004450 -0.010461 -0.002462
     2 O    -0.000514  0.000441 -0.000603
     3 Cl   -0.003137  0.007277  0.006270
     4 O    -0.000959  0.004340 -0.006970
     5 H     0.000012 -0.000018 -0.000011
     6 O     0.000138 -0.001593  0.002305
     7 H     0.000375  0.000851 -0.000064
     8 H    -0.000255 -0.000096 -0.000242
     9 H    -0.000016 -0.000001 -0.000124
    10 O     0.000318 -0.001105  0.000612
    11 O     0.000239 -0.001293  0.002408
    12 H    -0.000842  0.000273 -0.000225
    13 H     0.000327  0.000186 -0.000114
    14 O     0.000098  0.000617 -0.000423
    15 H     0.000037  0.000004 -0.000051
    16 H    -0.000008 -0.000025 -0.000111
    17 H    -0.000264  0.000603 -0.000195
 ----------------------------------------
 Mulliken charges used for AMS results%charges...

 dE(predicted):    -0.20044E-02, dE(actual):    -0.23015E-02, Trust radius:    0.400000, all in a.u.
 
----------------------------------------------------------------------
Geometry Convergence after Step   2       (Hartree/Angstrom,Angstrom)
----------------------------------------------------------------------
current energy                               -4.26615389 Hartree
energy change                      -0.00230148     0.00001700    F
constrained gradient max            0.01046084     0.00010000    F
constrained gradient rms            0.00253111     0.00006667    F
gradient max                        0.01046084
gradient rms                        0.00253111
cart. step max                      0.17037434     0.00100000    F
cart. step rms                      0.03543700     0.00066667    F
 
 
--------
Geometry
--------
Formula: H9ClO6Pa
Atoms
  Index Symbol   x (angstrom)   y (angstrom)   z (angstrom)
      1     Pa    -0.34816596    -0.08764441     0.51349987       adf.R=2.200
      2      O     1.69479151     1.24495332     0.95807303       adf.R=1.517
      3     Cl    -0.61581566     1.22841789    -1.74088671       adf.R=1.725
      4      O    -1.05411659     1.56421345     1.57357572       adf.R=1.517
      5      H     2.58666490     0.88342042     0.92056709       adf.R=1.350
      6      O    -1.09293218    -2.19180700    -0.66741730       adf.R=1.517
      7      H    -1.19163671    -2.29982812    -1.61996090       adf.R=1.350
      8      H    -0.91290063    -3.06771703    -0.30897080       adf.R=1.350
      9      H     1.70153080     1.98560045     1.57327390       adf.R=1.350
     10      O    -0.06420741    -1.23348464     1.91104155       adf.R=1.517
     11      O     1.74825909    -1.16283912    -0.38750027       adf.R=1.517
     12      H     2.05519405    -1.13246922    -1.30050095       adf.R=1.350
     13      H     2.11982010    -1.96211343     0.00128655       adf.R=1.350
     14      O    -2.80842564    -0.40547020     0.53233055       adf.R=1.517
     15      H    -3.23481720    -1.25271736     0.36487429       adf.R=1.350
     16      H    -3.38972776     0.11118180     1.09994818       adf.R=1.350
     17      H    -1.25679420     1.87567053     2.45997244       adf.R=1.350
 
Total System Charge             1.00000
Bonding info available!
 
 *** GO1_GOStep3 ***

 SOLVATION
-------------------------------------------

  The Delley construction of COSMO surface surface is calculated

       Division Level for Surface Triangles (NDIV)                  3
       Final Division Level for Triangles (NFDIV)                   1
       Radius of the Solvent (RSOL)                           1.93000 angstr
  Dielectric Constant (EPSL)                                 78.39000

       COSMO equation is solved iteratively-               conjugate-gradient

       Maximun of Iterations for Charges (NCIX)                  1000
       Criterion for Charge convergence (CCNV)                1.0E-08

  COSMO charges included variationally in SCF

       COSMO included at every SCF cycle

  Geometry-dependent empirical factor                         0.00000

  C-Matrix calculated in cspmtx

  In cspmtx, C-Matrix calculated using fitted potential

-------------------------------------------



 -------------------------------------------
  COSMO surface
  Area             =          642.299
  Volume           =         1169.275
  Number of Points =         1533
 -------------------------------------------



 ======================
 RI Hartree-Fock Scheme
 ======================
  
 Fit Set Quality     : GOOD
 Threshold Quality   : GOOD
 Integration Quality : GOOD
 Fit Generation Method : AUTO
 Response Quality    : DEFAULT
 Is Range Separated  :  F
 
 RIHartreeFock Dependency: number of modified vectors:          11
 cosmo_calcen: 0.5 (esolb+esolc) (Hartrees) =   -0.124326

 Solvation energy (screening term,uncorrected) =    -78.015615 kcal/mol

 Solvation energy (dispersion and cavitation terms) =      1.201049 kcal/mol
 Solvation Energy Contributions (Hartrees)
          esola   esolb+esolc
     0.12432578   -0.24865157
 esol last cycle   -0.12432578
  
 Hartree-Fock exchange energy:   -546.366246052674     
 cosmo_calcen: 0.5 (esolb+esolc) (Hartrees) =   -0.124326

 Solvation energy (screening term,uncorrected) =    -78.015619 kcal/mol

 Solvation energy (dispersion and cavitation terms) =      1.201049 kcal/mol
 Solvation Energy Contributions (Hartrees)
          esola   esolb+esolc
     0.12432579   -0.24865158
 esol last cycle   -0.12432579

 Energy gradients wrt nuclear displacements
 ==========================================

     Atom      Cartesian (a.u./angstrom)
                 X         Y         Z
 ----------------------------------------
     1 Pa    0.001730 -0.004503 -0.000225
     2 O    -0.000035 -0.000031 -0.000293
     3 Cl   -0.001396  0.003838  0.000479
     4 O    -0.000110  0.000526 -0.000719
     5 H    -0.000029 -0.000065  0.000231
     6 O     0.000097 -0.000664  0.001607
     7 H     0.000196 -0.000034 -0.000246
     8 H    -0.000113 -0.000142 -0.000396
     9 H     0.000002  0.000197 -0.000177
    10 O    -0.000403  0.001395 -0.001000
    11 O    -0.000122 -0.000597  0.001629
    12 H    -0.000133 -0.000218 -0.000294
    13 H     0.000355  0.000070 -0.000228
    14 O     0.000040  0.000031 -0.000186
    15 H     0.000059 -0.000090  0.000177
    16 H    -0.000059  0.000146 -0.000193
    17 H    -0.000082  0.000139 -0.000166
 ----------------------------------------
 Mulliken charges used for AMS results%charges...

 dE(predicted):    -0.14995E-02, dE(actual):    -0.15788E-02, Trust radius:    0.400000, all in a.u.
 
----------------------------------------------------------------------
Geometry Convergence after Step   3       (Hartree/Angstrom,Angstrom)
----------------------------------------------------------------------
current energy                               -4.26773269 Hartree
energy change                      -0.00157880     0.00001700    F
constrained gradient max            0.00450108     0.00010000    F
constrained gradient rms            0.00100225     0.00006667    F
gradient max                        0.00450108
gradient rms                        0.00100225
cart. step max                      0.10830680     0.00100000    F
cart. step rms                      0.02023507     0.00066667    F
 
 
--------
Geometry
--------
Formula: H9ClO6Pa
Atoms
  Index Symbol   x (angstrom)   y (angstrom)   z (angstrom)
      1     Pa    -0.35124618    -0.08106531     0.51980464       adf.R=2.200
      2      O     1.69202268     1.25028975     0.96771393       adf.R=1.517
      3     Cl    -0.57232735     1.12011108    -1.80151218       adf.R=1.725
      4      O    -1.05496704     1.56295436     1.59258725       adf.R=1.517
      5      H     2.58391454     0.88891073     0.92924552       adf.R=1.350
      6      O    -1.09612664    -2.17810790    -0.67359252       adf.R=1.517
      7      H    -1.19550565    -2.28451391    -1.62611613       adf.R=1.350
      8      H    -0.91744139    -3.05469120    -0.31601786       adf.R=1.350
      9      H     1.69853101     1.98868471     1.58562418       adf.R=1.350
     10      O    -0.06342462    -1.23624334     1.90974552       adf.R=1.517
     11      O     1.74332082    -1.14905178    -0.39480377       adf.R=1.517
     12      H     2.05054828    -1.11437143    -1.30740325       adf.R=1.350
     13      H     2.11496043    -1.94983208    -0.00915093       adf.R=1.350
     14      O    -2.81151994    -0.39981243     0.54077954       adf.R=1.517
     15      H    -3.23808154    -1.24683314     0.37265270       adf.R=1.350
     16      H    -3.39179494     0.11545413     1.11073761       adf.R=1.350
     17      H    -1.25414196     1.86548509     2.48291198       adf.R=1.350
 
Total System Charge             1.00000
Bonding info available!
 
 *** GO1_GOStep4 ***

 SOLVATION
-------------------------------------------

  The Delley construction of COSMO surface surface is calculated

       Division Level for Surface Triangles (NDIV)                  3
       Final Division Level for Triangles (NFDIV)                   1
       Radius of the Solvent (RSOL)                           1.93000 angstr
  Dielectric Constant (EPSL)                                 78.39000

       COSMO equation is solved iteratively-               conjugate-gradient

       Maximun of Iterations for Charges (NCIX)                  1000
       Criterion for Charge convergence (CCNV)                1.0E-08

  COSMO charges included variationally in SCF

       COSMO included at every SCF cycle

  Geometry-dependent empirical factor                         0.00000

  C-Matrix calculated in cspmtx

  In cspmtx, C-Matrix calculated using fitted potential

-------------------------------------------



 -------------------------------------------
  COSMO surface
  Area             =          642.485
  Volume           =         1169.827
  Number of Points =         1535
 -------------------------------------------



 ======================
 RI Hartree-Fock Scheme
 ======================
  
 Fit Set Quality     : GOOD
 Threshold Quality   : GOOD
 Integration Quality : GOOD
 Fit Generation Method : AUTO
 Response Quality    : DEFAULT
 Is Range Separated  :  F
 
 RIHartreeFock Dependency: number of modified vectors:          11
 cosmo_calcen: 0.5 (esolb+esolc) (Hartrees) =   -0.122722

 Solvation energy (screening term,uncorrected) =    -77.009464 kcal/mol

 Solvation energy (dispersion and cavitation terms) =      1.201398 kcal/mol
 Solvation Energy Contributions (Hartrees)
          esola   esolb+esolc
     0.12272238   -0.24544476
 esol last cycle   -0.12272238
  
 Hartree-Fock exchange energy:   -546.365764381527     
 cosmo_calcen: 0.5 (esolb+esolc) (Hartrees) =   -0.122722

 Solvation energy (screening term,uncorrected) =    -77.009476 kcal/mol

 Solvation energy (dispersion and cavitation terms) =      1.201398 kcal/mol
 Solvation Energy Contributions (Hartrees)
          esola   esolb+esolc
     0.12272240   -0.24544480
 esol last cycle   -0.12272240

 Energy gradients wrt nuclear displacements
 ==========================================

     Atom      Cartesian (a.u./angstrom)
                 X         Y         Z
 ----------------------------------------
     1 Pa    0.000262 -0.000998  0.000244
     2 O     0.000095 -0.000092 -0.000017
     3 Cl   -0.000581  0.001567 -0.000648
     4 O     0.000379 -0.001152  0.000757
     5 H    -0.000029 -0.000091  0.000303
     6 O     0.000061 -0.000067  0.000553
     7 H     0.000085 -0.000383 -0.000151
     8 H     0.000013 -0.000123 -0.000240
     9 H     0.000034  0.000180 -0.000195
    10 O    -0.000501  0.001685 -0.000753
    11 O    -0.000142 -0.000083  0.000519
    12 H     0.000178 -0.000400 -0.000123
    13 H     0.000227  0.000028 -0.000147
    14 O    -0.000054 -0.000164 -0.000077
    15 H     0.000072 -0.000094  0.000276
    16 H    -0.000061  0.000149 -0.000226
    17 H    -0.000039  0.000038 -0.000074
 ----------------------------------------
 Mulliken charges used for AMS results%charges...

 dE(predicted):    -0.30025E-03, dE(actual):    -0.26677E-03, Trust radius:    0.400000, all in a.u.
 
----------------------------------------------------------------------
Geometry Convergence after Step   4       (Hartree/Angstrom,Angstrom)
----------------------------------------------------------------------
current energy                               -4.26799946 Hartree
energy change                      -0.00026677     0.00001700    F
constrained gradient max            0.00170545     0.00010000    F
constrained gradient rms            0.00047613     0.00006667    F
gradient max                        0.00170545
gradient rms                        0.00047613
cart. step max                      0.05503327     0.00100000    F
cart. step rms                      0.01007034     0.00066667    F
 
 
--------
Geometry
--------
Formula: H9ClO6Pa
Atoms
  Index Symbol   x (angstrom)   y (angstrom)   z (angstrom)
      1     Pa    -0.35219406    -0.07958294     0.52473944       adf.R=2.200
      2      O     1.69069559     1.25179746     0.97424991       adf.R=1.517
      3     Cl    -0.54919459     1.06507781    -1.82583771       adf.R=1.725
      4      O    -1.05628241     1.56590227     1.59560094       adf.R=1.517
      5      H     2.58300592     0.89184002     0.93247427       adf.R=1.350
      6      O    -1.09861828    -2.17107996    -0.67685240       adf.R=1.517
      7      H    -1.19797944    -2.27429606    -1.62959713       adf.R=1.350
      8      H    -0.92218056    -3.04869924    -0.32075876       adf.R=1.350
      9      H     1.69714427     1.98735126     1.59554875       adf.R=1.350
     10      O    -0.06155146    -1.24213816     1.90934818       adf.R=1.517
     11      O     1.74139665    -1.14176045    -0.39844454       adf.R=1.517
     12      H     2.04733639    -1.10271192    -1.31117845       adf.R=1.350
     13      H     2.11390347    -1.94355088    -0.01577856       adf.R=1.350
     14      O    -2.81245850    -0.39838714     0.54710942       adf.R=1.517
     15      H    -3.23956575    -1.24448472     0.37569899       adf.R=1.350
     16      H    -3.39159870     0.11420978     1.12064307       adf.R=1.350
     17      H    -1.25513804     1.86788019     2.48624084       adf.R=1.350
 
Total System Charge             1.00000
Bonding info available!
 
 *** GO1_GOStep5 ***

 SOLVATION
-------------------------------------------

  The Delley construction of COSMO surface surface is calculated

       Division Level for Surface Triangles (NDIV)                  3
       Final Division Level for Triangles (NFDIV)                   1
       Radius of the Solvent (RSOL)                           1.93000 angstr
  Dielectric Constant (EPSL)                                 78.39000

       COSMO equation is solved iteratively-               conjugate-gradient

       Maximun of Iterations for Charges (NCIX)                  1000
       Criterion for Charge convergence (CCNV)                1.0E-08

  COSMO charges included variationally in SCF

       COSMO included at every SCF cycle

  Geometry-dependent empirical factor                         0.00000

  C-Matrix calculated in cspmtx

  In cspmtx, C-Matrix calculated using fitted potential

-------------------------------------------



 -------------------------------------------
  COSMO surface
  Area             =          642.530
  Volume           =         1169.448
  Number of Points =         1542
 -------------------------------------------



 ======================
 RI Hartree-Fock Scheme
 ======================
  
 Fit Set Quality     : GOOD
 Threshold Quality   : GOOD
 Integration Quality : GOOD
 Fit Generation Method : AUTO
 Response Quality    : DEFAULT
 Is Range Separated  :  F
 
 RIHartreeFock Dependency: number of modified vectors:          11
 cosmo_calcen: 0.5 (esolb+esolc) (Hartrees) =   -0.122112

 Solvation energy (screening term,uncorrected) =    -76.626743 kcal/mol

 Solvation energy (dispersion and cavitation terms) =      1.201482 kcal/mol
 Solvation Energy Contributions (Hartrees)
          esola   esolb+esolc
     0.12211247   -0.24422495
 esol last cycle   -0.12211247
  
 Hartree-Fock exchange energy:   -546.365153858283     
 cosmo_calcen: 0.5 (esolb+esolc) (Hartrees) =   -0.122112

 Solvation energy (screening term,uncorrected) =    -76.626751 kcal/mol

 Solvation energy (dispersion and cavitation terms) =      1.201482 kcal/mol
 Solvation Energy Contributions (Hartrees)
          esola   esolb+esolc
     0.12211249   -0.24422498
 esol last cycle   -0.12211249

 Energy gradients wrt nuclear displacements
 ==========================================

     Atom      Cartesian (a.u./angstrom)
                 X         Y         Z
 ----------------------------------------
     1 Pa   -0.000734  0.000939  0.000125
     2 O     0.000229 -0.000069 -0.000008
     3 Cl   -0.000142  0.000382 -0.000581
     4 O     0.000617 -0.001644  0.000958
     5 H    -0.000030 -0.000087  0.000290
     6 O     0.000100  0.000236 -0.000256
     7 H    -0.000000 -0.000447 -0.000022
     8 H     0.000059 -0.000048 -0.000022
     9 H     0.000009  0.000150 -0.000157
    10 O    -0.000288  0.001057 -0.000138
    11 O    -0.000127  0.000088 -0.000158
    12 H     0.000296 -0.000340  0.000009
    13 H     0.000092 -0.000004 -0.000026
    14 O    -0.000081 -0.000209 -0.000085
    15 H     0.000060 -0.000107  0.000295
    16 H    -0.000048  0.000130 -0.000206
    17 H    -0.000014 -0.000026 -0.000020
 ----------------------------------------
 Mulliken charges used for AMS results%charges...

 dE(predicted):    -0.55923E-04, dE(actual):    -0.83890E-04, Trust radius:    0.400000, all in a.u.
 
----------------------------------------------------------------------
Geometry Convergence after Step   5       (Hartree/Angstrom,Angstrom)
----------------------------------------------------------------------
current energy                               -4.26808335 Hartree
energy change                      -0.00008389     0.00001700    F
constrained gradient max            0.00161397     0.00010000    F
constrained gradient rms            0.00039975     0.00006667    F
gradient max                        0.00161397
gradient rms                        0.00039975
cart. step max                      0.02200938     0.00100000    F
cart. step rms                      0.00490650     0.00066667    F
 
 
--------
Geometry
--------
Formula: H9ClO6Pa
Atoms
  Index Symbol   x (angstrom)   y (angstrom)   z (angstrom)
      1     Pa    -0.35183250    -0.08059897     0.52807911       adf.R=2.200
      2      O     1.69028902     1.25117058     0.97909024       adf.R=1.517
      3     Cl    -0.53922540     1.04306843    -1.83251311       adf.R=1.725
      4      O    -1.05782669     1.57024764     1.59086815       adf.R=1.517
      5      H     2.58312047     0.89299252     0.93338282       adf.R=1.350
      6      O    -1.10060575    -2.16853706    -0.67759307       adf.R=1.517
      7      H    -1.19963715    -2.26818429    -1.63069053       adf.R=1.350
      8      H    -0.92623968    -3.04728942    -0.32342321       adf.R=1.350
      9      H     1.69677966     1.98372982     1.60391538       adf.R=1.350
     10      O    -0.05964601    -1.24814117     1.90916608       adf.R=1.517
     11      O     1.74141645    -1.13826954    -0.40013489       adf.R=1.517
     12      H     2.04488293    -1.09572964    -1.31347626       adf.R=1.350
     13      H     2.11532121    -1.94064533    -0.02018970       adf.R=1.350
     14      O    -2.81209013    -0.39888118     0.55166051       adf.R=1.517
     15      H    -3.24000248    -1.24364851     0.37574479       adf.R=1.350
     16      H    -3.39007477     0.11060972     1.12913818       adf.R=1.350
     17      H    -1.25790865     1.87547373     2.48018175       adf.R=1.350
 
Total System Charge             1.00000
Bonding info available!
 
 *** GO1_GOStep6 ***

 SOLVATION
-------------------------------------------

  The Delley construction of COSMO surface surface is calculated

       Division Level for Surface Triangles (NDIV)                  3
       Final Division Level for Triangles (NFDIV)                   1
       Radius of the Solvent (RSOL)                           1.93000 angstr
  Dielectric Constant (EPSL)                                 78.39000

       COSMO equation is solved iteratively-               conjugate-gradient

       Maximun of Iterations for Charges (NCIX)                  1000
       Criterion for Charge convergence (CCNV)                1.0E-08

  COSMO charges included variationally in SCF

       COSMO included at every SCF cycle

  Geometry-dependent empirical factor                         0.00000

  C-Matrix calculated in cspmtx

  In cspmtx, C-Matrix calculated using fitted potential

-------------------------------------------



 -------------------------------------------
  COSMO surface
  Area             =          641.653
  Volume           =         1167.685
  Number of Points =         1539
 -------------------------------------------



 ======================
 RI Hartree-Fock Scheme
 ======================
  
 Fit Set Quality     : GOOD
 Threshold Quality   : GOOD
 Integration Quality : GOOD
 Fit Generation Method : AUTO
 Response Quality    : DEFAULT
 Is Range Separated  :  F
 
 RIHartreeFock Dependency: number of modified vectors:          11
 cosmo_calcen: 0.5 (esolb+esolc) (Hartrees) =   -0.121924

 Solvation energy (screening term,uncorrected) =    -76.508723 kcal/mol

 Solvation energy (dispersion and cavitation terms) =      1.199842 kcal/mol
 Solvation Energy Contributions (Hartrees)
          esola   esolb+esolc
     0.12192440   -0.24384879
 esol last cycle   -0.12192440
  
 Hartree-Fock exchange energy:   -546.364605953339     
 cosmo_calcen: 0.5 (esolb+esolc) (Hartrees) =   -0.121924

 Solvation energy (screening term,uncorrected) =    -76.508729 kcal/mol

 Solvation energy (dispersion and cavitation terms) =      1.199842 kcal/mol
 Solvation Energy Contributions (Hartrees)
          esola   esolb+esolc
     0.12192441   -0.24384882
 esol last cycle   -0.12192441

 Energy gradients wrt nuclear displacements
 ==========================================

     Atom      Cartesian (a.u./angstrom)
                 X         Y         Z
 ----------------------------------------
     1 Pa   -0.000940  0.001487 -0.000181
     2 O     0.000326 -0.000063 -0.000020
     3 Cl    0.000014  0.000002 -0.000386
     4 O     0.000428 -0.001220  0.000820
     5 H    -0.000025 -0.000070  0.000238
     6 O     0.000070  0.000130 -0.000467
     7 H     0.000003 -0.000335  0.000011
     8 H     0.000038  0.000091  0.000084
     9 H    -0.000033  0.000116 -0.000129
    10 O    -0.000069  0.000288  0.000278
    11 O     0.000013  0.000019 -0.000394
    12 H     0.000255 -0.000226  0.000038
    13 H    -0.000018  0.000070  0.000089
    14 O    -0.000063 -0.000234 -0.000129
    15 H     0.000034 -0.000089  0.000265
    16 H    -0.000038  0.000104 -0.000150
    17 H     0.000004 -0.000068  0.000033
 ----------------------------------------
 Mulliken charges used for AMS results%charges...

 dE(predicted):    -0.17695E-04, dE(actual):    -0.40789E-04, Trust radius:    0.400000, all in a.u.
 
----------------------------------------------------------------------
Geometry Convergence after Step   6       (Hartree/Angstrom,Angstrom)
----------------------------------------------------------------------
current energy                               -4.26812414 Hartree
energy change                      -0.00004079     0.00001700    F
constrained gradient max            0.00149088     0.00010000    F
constrained gradient rms            0.00036545     0.00006667    F
gradient max                        0.00149088
gradient rms                        0.00036545
cart. step max                      0.02049626     0.00100000    F
cart. step rms                      0.00709052     0.00066667    F
 
 
--------
Geometry
--------
Formula: H9ClO6Pa
Atoms
  Index Symbol   x (angstrom)   y (angstrom)   z (angstrom)
      1     Pa    -0.35028645    -0.08407850     0.53315602       adf.R=2.200
      2      O     1.68966566     1.24914731     0.98731217       adf.R=1.517
      3     Cl    -0.52932540     1.02257217    -1.83481578       adf.R=1.725
      4      O    -1.06018371     1.57845019     1.57774538       adf.R=1.517
      5      H     2.58355448     0.89466170     0.93411666       adf.R=1.350
      6      O    -1.10347038    -2.16691900    -0.67735417       adf.R=1.517
      7      H    -1.20225302    -2.25976491    -1.63110287       adf.R=1.350
      8      H    -0.93217290    -3.04797946    -0.32749815       adf.R=1.350
      9      H     1.69619408     1.97591846     1.61887017       adf.R=1.350
     10      O    -0.05646458    -1.25784527     1.90959964       adf.R=1.517
     11      O     1.74247855    -1.13457730    -0.40219010       adf.R=1.517
     12      H     2.04057317    -1.08599947    -1.31692239       adf.R=1.350
     13      H     2.11906381    -1.93829195    -0.02786496       adf.R=1.350
     14      O    -2.81058511    -0.40054101     0.55900246       adf.R=1.517
     15      H    -3.24028681    -1.24242471     0.37385183       adf.R=1.350
     16      H    -3.38643445     0.10306193     1.14375421       adf.R=1.350
     17      H    -1.26334642     1.89197715     2.46354614       adf.R=1.350
 
Total System Charge             1.00000
Bonding info available!
 
 *** GO1_GOStep7 ***

 SOLVATION
-------------------------------------------

  The Delley construction of COSMO surface surface is calculated

       Division Level for Surface Triangles (NDIV)                  3
       Final Division Level for Triangles (NFDIV)                   1
       Radius of the Solvent (RSOL)                           1.93000 angstr
  Dielectric Constant (EPSL)                                 78.39000

       COSMO equation is solved iteratively-               conjugate-gradient

       Maximun of Iterations for Charges (NCIX)                  1000
       Criterion for Charge convergence (CCNV)                1.0E-08

  COSMO charges included variationally in SCF

       COSMO included at every SCF cycle

  Geometry-dependent empirical factor                         0.00000

  C-Matrix calculated in cspmtx

  In cspmtx, C-Matrix calculated using fitted potential

-------------------------------------------



 -------------------------------------------
  COSMO surface
  Area             =          641.243
  Volume           =         1167.128
  Number of Points =         1542
 -------------------------------------------



 ======================
 RI Hartree-Fock Scheme
 ======================
  
 Fit Set Quality     : GOOD
 Threshold Quality   : GOOD
 Integration Quality : GOOD
 Fit Generation Method : AUTO
 Response Quality    : DEFAULT
 Is Range Separated  :  F
 
 RIHartreeFock Dependency: number of modified vectors:          11
 cosmo_calcen: 0.5 (esolb+esolc) (Hartrees) =   -0.121847

 Solvation energy (screening term,uncorrected) =    -76.459988 kcal/mol

 Solvation energy (dispersion and cavitation terms) =      1.199076 kcal/mol
 Solvation Energy Contributions (Hartrees)
          esola   esolb+esolc
     0.12184673   -0.24369347
 esol last cycle   -0.12184673
  
 Hartree-Fock exchange energy:   -546.364046065809     
 cosmo_calcen: 0.5 (esolb+esolc) (Hartrees) =   -0.121847

 Solvation energy (screening term,uncorrected) =    -76.459991 kcal/mol

 Solvation energy (dispersion and cavitation terms) =      1.199076 kcal/mol
 Solvation Energy Contributions (Hartrees)
          esola   esolb+esolc
     0.12184674   -0.24369348
 esol last cycle   -0.12184674

 Energy gradients wrt nuclear displacements
 ==========================================

     Atom      Cartesian (a.u./angstrom)
                 X         Y         Z
 ----------------------------------------
     1 Pa   -0.000803  0.001329 -0.000359
     2 O     0.000357 -0.000018 -0.000048
     3 Cl    0.000124 -0.000231 -0.000011
     4 O     0.000033 -0.000136  0.000386
     5 H    -0.000026 -0.000033  0.000127
     6 O     0.000150 -0.000090 -0.000621
     7 H    -0.000072 -0.000035  0.000055
     8 H    -0.000038  0.000150  0.000321
     9 H    -0.000097  0.000084 -0.000074
    10 O     0.000202 -0.000691  0.000476
    11 O     0.000206 -0.000105 -0.000597
    12 H     0.000106 -0.000019  0.000059
    13 H    -0.000136  0.000131  0.000252
    14 O    -0.000020 -0.000197 -0.000207
    15 H    -0.000008 -0.000058  0.000167
    16 H    -0.000004  0.000049 -0.000036
    17 H     0.000028 -0.000133  0.000108
 ----------------------------------------
 Mulliken charges used for AMS results%charges...

 dE(predicted):    -0.23499E-04, dE(actual):    -0.58489E-04, Trust radius:    0.400000, all in a.u.
 
----------------------------------------------------------------------
Geometry Convergence after Step   7       (Hartree/Angstrom,Angstrom)
----------------------------------------------------------------------
current energy                               -4.26818263 Hartree
energy change                      -0.00005849     0.00001700    F
constrained gradient max            0.00133271     0.00010000    F
constrained gradient rms            0.00030992     0.00006667    F
gradient max                        0.00133271
gradient rms                        0.00030992
cart. step max                      0.01092766     0.00100000    F
cart. step rms                      0.00334415     0.00066667    F
 
 
--------
Geometry
--------
Formula: H9ClO6Pa
Atoms
  Index Symbol   x (angstrom)   y (angstrom)   z (angstrom)
      1     Pa    -0.34925332    -0.08653847     0.53503498       adf.R=2.200
      2      O     1.68932222     1.24759863     0.99093487       adf.R=1.517
      3     Cl    -0.52916433     1.02197212    -1.83160444       adf.R=1.725
      4      O    -1.06116476     1.58228014     1.56919494       adf.R=1.517
      5      H     2.58373578     0.89504402     0.93372035       adf.R=1.350
      6      O    -1.10425414    -2.16759774    -0.67682387       adf.R=1.517
      7      H    -1.20222315    -2.25684063    -1.63102081       adf.R=1.350
      8      H    -0.93296105    -3.04996266    -0.33030928       adf.R=1.350
      9      H     1.69611846     1.97113987     1.62618284       adf.R=1.350
     10      O    -0.05560959    -1.26054118     1.91112519       adf.R=1.517
     11      O     1.74333595    -1.13434798    -0.40242150       adf.R=1.517
     12      H     2.03833620    -1.08306766    -1.31801152       adf.R=1.350
     13      H     2.12121049    -1.93907915    -0.03158183       adf.R=1.350
     14      O    -2.80961794    -0.40149167     0.56266915       adf.R=1.517
     15      H    -3.24042397    -1.24170476     0.37259263       adf.R=1.350
     16      H    -3.38437334     0.09928440     1.15090608       adf.R=1.350
     17      H    -1.26629300     1.90122006     2.45261848       adf.R=1.350
 
Total System Charge             1.00000
Bonding info available!
 
 *** GO1_GOStep8 ***

 SOLVATION
-------------------------------------------

  The Delley construction of COSMO surface surface is calculated

       Division Level for Surface Triangles (NDIV)                  3
       Final Division Level for Triangles (NFDIV)                   1
       Radius of the Solvent (RSOL)                           1.93000 angstr
  Dielectric Constant (EPSL)                                 78.39000

       COSMO equation is solved iteratively-               conjugate-gradient

       Maximun of Iterations for Charges (NCIX)                  1000
       Criterion for Charge convergence (CCNV)                1.0E-08

  COSMO charges included variationally in SCF

       COSMO included at every SCF cycle

  Geometry-dependent empirical factor                         0.00000

  C-Matrix calculated in cspmtx

  In cspmtx, C-Matrix calculated using fitted potential

-------------------------------------------



 -------------------------------------------
  COSMO surface
  Area             =          640.865
  Volume           =         1166.742
  Number of Points =         1541
 -------------------------------------------



 ======================
 RI Hartree-Fock Scheme
 ======================
  
 Fit Set Quality     : GOOD
 Threshold Quality   : GOOD
 Integration Quality : GOOD
 Fit Generation Method : AUTO
 Response Quality    : DEFAULT
 Is Range Separated  :  F
 
 RIHartreeFock Dependency: number of modified vectors:          11
 cosmo_calcen: 0.5 (esolb+esolc) (Hartrees) =   -0.121950

 Solvation energy (screening term,uncorrected) =    -76.524834 kcal/mol

 Solvation energy (dispersion and cavitation terms) =      1.198367 kcal/mol
 Solvation Energy Contributions (Hartrees)
          esola   esolb+esolc
     0.12195007   -0.24390015
 esol last cycle   -0.12195007
  
 Hartree-Fock exchange energy:   -546.364229238386     
 cosmo_calcen: 0.5 (esolb+esolc) (Hartrees) =   -0.121950

 Solvation energy (screening term,uncorrected) =    -76.524841 kcal/mol

 Solvation energy (dispersion and cavitation terms) =      1.198367 kcal/mol
 Solvation Energy Contributions (Hartrees)
          esola   esolb+esolc
     0.12195008   -0.24390017
 esol last cycle   -0.12195008

 Energy gradients wrt nuclear displacements
 ==========================================

     Atom      Cartesian (a.u./angstrom)
                 X         Y         Z
 ----------------------------------------
     1 Pa   -0.000470  0.000677 -0.000046
     2 O     0.000253  0.000024 -0.000071
     3 Cl    0.000069 -0.000121  0.000159
     4 O    -0.000159  0.000291  0.000022
     5 H    -0.000020 -0.000006  0.000071
     6 O     0.000019 -0.000089 -0.000365
     7 H    -0.000051  0.000025  0.000049
     8 H     0.000076  0.000122  0.000188
     9 H    -0.000093  0.000034 -0.000031
    10 O     0.000218 -0.000717  0.000162
    11 O     0.000200 -0.000133 -0.000502
    12 H     0.000041  0.000043  0.000063
    13 H    -0.000135  0.000130  0.000248
    14 O    -0.000013 -0.000112 -0.000184
    15 H     0.000001 -0.000034  0.000097
    16 H     0.000017  0.000032  0.000019
    17 H     0.000048 -0.000167  0.000121
 ----------------------------------------
 Mulliken charges used for AMS results%charges...

 dE(predicted):    -0.69199E-05, dE(actual):    -0.23880E-04, Trust radius:    0.400000, all in a.u.
 
----------------------------------------------------------------------
Geometry Convergence after Step   8       (Hartree/Angstrom,Angstrom)
----------------------------------------------------------------------
current energy                               -4.26820651 Hartree
energy change                      -0.00002388     0.00001700    F
constrained gradient max            0.00069491     0.00010000    F
constrained gradient rms            0.00020830     0.00006667    F
gradient max                        0.00069491
gradient rms                        0.00020830
cart. step max                      0.00639303     0.00100000    F
cart. step rms                      0.00196405     0.00066667    F
 
 
--------
Geometry
--------
Formula: H9ClO6Pa
Atoms
  Index Symbol   x (angstrom)   y (angstrom)   z (angstrom)
      1     Pa    -0.34851712    -0.08798331     0.53563279       adf.R=2.200
      2      O     1.68912523     1.24663299     0.99301010       adf.R=1.517
      3     Cl    -0.53047149     1.02412120    -1.82915743       adf.R=1.725
      4      O    -1.06126574     1.58394120     1.56436048       adf.R=1.517
      5      H     2.58380491     0.89508745     0.93360692       adf.R=1.350
      6      O    -1.10444055    -2.16844831    -0.67643970       adf.R=1.517
      7      H    -1.20153006    -2.25584522    -1.63094991       adf.R=1.350
      8      H    -0.93387367    -3.05170859    -0.33185304       adf.R=1.350
      9      H     1.69619140     1.96830849     1.63038140       adf.R=1.350
     10      O    -0.05584745    -1.25971939     1.91339141       adf.R=1.517
     11      O     1.74402579    -1.13456636    -0.40247267       adf.R=1.517
     12      H     2.03695914    -1.08174285    -1.31868615       adf.R=1.350
     13      H     2.12264363    -1.94025898    -0.03442476       adf.R=1.350
     14      O    -2.80890904    -0.40224019     0.56453699       adf.R=1.517
     15      H    -3.24025202    -1.24152764     0.37159645       adf.R=1.350
     16      H    -3.38327627     0.09697199     1.15444793       adf.R=1.350
     17      H    -1.26764617     1.90634485     2.44622545       adf.R=1.350
 
Total System Charge             1.00000
Bonding info available!
 
 *** GO1_GOStep9 ***

 SOLVATION
-------------------------------------------

  The Delley construction of COSMO surface surface is calculated

       Division Level for Surface Triangles (NDIV)                  3
       Final Division Level for Triangles (NFDIV)                   1
       Radius of the Solvent (RSOL)                           1.93000 angstr
  Dielectric Constant (EPSL)                                 78.39000

       COSMO equation is solved iteratively-               conjugate-gradient

       Maximun of Iterations for Charges (NCIX)                  1000
       Criterion for Charge convergence (CCNV)                1.0E-08

  COSMO charges included variationally in SCF

       COSMO included at every SCF cycle

  Geometry-dependent empirical factor                         0.00000

  C-Matrix calculated in cspmtx

  In cspmtx, C-Matrix calculated using fitted potential

-------------------------------------------



 -------------------------------------------
  COSMO surface
  Area             =          640.739
  Volume           =         1166.598
  Number of Points =         1538
 -------------------------------------------



 ======================
 RI Hartree-Fock Scheme
 ======================
  
 Fit Set Quality     : GOOD
 Threshold Quality   : GOOD
 Integration Quality : GOOD
 Fit Generation Method : AUTO
 Response Quality    : DEFAULT
 Is Range Separated  :  F
 
 RIHartreeFock Dependency: number of modified vectors:          11
 cosmo_calcen: 0.5 (esolb+esolc) (Hartrees) =   -0.122055

 Solvation energy (screening term,uncorrected) =    -76.590589 kcal/mol

 Solvation energy (dispersion and cavitation terms) =      1.198132 kcal/mol
 Solvation Energy Contributions (Hartrees)
          esola   esolb+esolc
     0.12205486   -0.24410972
 esol last cycle   -0.12205486
  
 Hartree-Fock exchange energy:   -546.364538702535     
 cosmo_calcen: 0.5 (esolb+esolc) (Hartrees) =   -0.122055

 Solvation energy (screening term,uncorrected) =    -76.590598 kcal/mol

 Solvation energy (dispersion and cavitation terms) =      1.198132 kcal/mol
 Solvation Energy Contributions (Hartrees)
          esola   esolb+esolc
     0.12205487   -0.24410975
 esol last cycle   -0.12205487

 Energy gradients wrt nuclear displacements
 ==========================================

     Atom      Cartesian (a.u./angstrom)
                 X         Y         Z
 ----------------------------------------
     1 Pa   -0.000153  0.000014  0.000295
     2 O     0.000121  0.000030 -0.000073
     3 Cl    0.000005  0.000007  0.000213
     4 O    -0.000197  0.000424 -0.000154
     5 H    -0.000012  0.000014  0.000046
     6 O     0.000010 -0.000059 -0.000161
     7 H    -0.000032  0.000016 -0.000004
     8 H     0.000061  0.000115  0.000097
     9 H    -0.000068  0.000018  0.000003
    10 O     0.000124 -0.000401 -0.000205
    11 O     0.000110 -0.000070 -0.000316
    12 H     0.000037  0.000016  0.000025
    13 H    -0.000093  0.000104  0.000166
    14 O    -0.000008 -0.000027 -0.000134
    15 H     0.000008 -0.000039  0.000060
    16 H     0.000035  0.000010  0.000025
    17 H     0.000050 -0.000172  0.000116
 ----------------------------------------
 Mulliken charges used for AMS results%charges...

 dE(predicted):    -0.26257E-05, dE(actual):    -0.85447E-05, Trust radius:    0.400000, all in a.u.
 
----------------------------------------------------------------------
Geometry Convergence after Step   9       (Hartree/Angstrom,Angstrom)
----------------------------------------------------------------------
current energy                               -4.26821505 Hartree
energy change                      -0.00000854     0.00001700    T
constrained gradient max            0.00044640     0.00010000    F
constrained gradient rms            0.00013446     0.00006667    F
gradient max                        0.00044640
gradient rms                        0.00013446
cart. step max                      0.00446451     0.00100000    F
cart. step rms                      0.00159969     0.00066667    F
 
 
--------
Geometry
--------
Formula: H9ClO6Pa
Atoms
  Index Symbol   x (angstrom)   y (angstrom)   z (angstrom)
      1     Pa    -0.34799780    -0.08889702     0.53598750       adf.R=2.200
      2      O     1.68898583     1.24580675     0.99489863       adf.R=1.517
      3     Cl    -0.53097031     1.02374319    -1.82861394       adf.R=1.725
      4      O    -1.06113270     1.58487521     1.56123393       adf.R=1.517
      5      H     2.58379804     0.89486600     0.93372153       adf.R=1.350
      6      O    -1.10450115    -2.16904422    -0.67618046       adf.R=1.517
      7      H    -1.20066107    -2.25485978    -1.63096793       adf.R=1.350
      8      H    -0.93468865    -3.05319352    -0.33340736       adf.R=1.350
      9      H     1.69647305     1.96589126     1.63406224       adf.R=1.350
     10      O    -0.05654813    -1.25727937     1.91649392       adf.R=1.517
     11      O     1.74450604    -1.13443923    -0.40266294       adf.R=1.517
     12      H     2.03551022    -1.07994293    -1.31944236       adf.R=1.350
     13      H     2.12375216    -1.94127900    -0.03768145       adf.R=1.350
     14      O    -2.80841283    -0.40283488     0.56614127       adf.R=1.517
     15      H    -3.24015586    -1.24131903     0.37063200       adf.R=1.350
     16      H    -3.38268311     0.09506737     1.15723071       adf.R=1.350
     17      H    -1.26855321     1.91020653     2.44176094       adf.R=1.350
 
Total System Charge             1.00000
Bonding info available!
 
 *** GO1_GOStep10 ***

 SOLVATION
-------------------------------------------

  The Delley construction of COSMO surface surface is calculated

       Division Level for Surface Triangles (NDIV)                  3
       Final Division Level for Triangles (NFDIV)                   1
       Radius of the Solvent (RSOL)                           1.93000 angstr
  Dielectric Constant (EPSL)                                 78.39000

       COSMO equation is solved iteratively-               conjugate-gradient

       Maximun of Iterations for Charges (NCIX)                  1000
       Criterion for Charge convergence (CCNV)                1.0E-08

  COSMO charges included variationally in SCF

       COSMO included at every SCF cycle

  Geometry-dependent empirical factor                         0.00000

  C-Matrix calculated in cspmtx

  In cspmtx, C-Matrix calculated using fitted potential

-------------------------------------------



 -------------------------------------------
  COSMO surface
  Area             =          640.900
  Volume           =         1167.030
  Number of Points =         1539
 -------------------------------------------



 ======================
 RI Hartree-Fock Scheme
 ======================
  
 Fit Set Quality     : GOOD
 Threshold Quality   : GOOD
 Integration Quality : GOOD
 Fit Generation Method : AUTO
 Response Quality    : DEFAULT
 Is Range Separated  :  F
 
 RIHartreeFock Dependency: number of modified vectors:          11
 cosmo_calcen: 0.5 (esolb+esolc) (Hartrees) =   -0.122135

 Solvation energy (screening term,uncorrected) =    -76.640789 kcal/mol

 Solvation energy (dispersion and cavitation terms) =      1.198434 kcal/mol
 Solvation Energy Contributions (Hartrees)
          esola   esolb+esolc
     0.12213486   -0.24426972
 esol last cycle   -0.12213486
  
 Hartree-Fock exchange energy:   -546.364755417979     
 cosmo_calcen: 0.5 (esolb+esolc) (Hartrees) =   -0.122135

 Solvation energy (screening term,uncorrected) =    -76.640798 kcal/mol

 Solvation energy (dispersion and cavitation terms) =      1.198434 kcal/mol
 Solvation Energy Contributions (Hartrees)
          esola   esolb+esolc
     0.12213487   -0.24426975
 esol last cycle   -0.12213487

 Energy gradients wrt nuclear displacements
 ==========================================

     Atom      Cartesian (a.u./angstrom)
                 X         Y         Z
 ----------------------------------------
     1 Pa    0.000104 -0.000418  0.000441
     2 O    -0.000009  0.000036 -0.000048
     3 Cl   -0.000037  0.000064  0.000208
     4 O    -0.000181  0.000408 -0.000217
     5 H     0.000002  0.000027  0.000030
     6 O    -0.000021  0.000061 -0.000032
     7 H    -0.000019 -0.000033 -0.000028
     8 H     0.000066  0.000052 -0.000003
     9 H    -0.000035  0.000001  0.000024
    10 O     0.000023 -0.000081 -0.000382
    11 O    -0.000016  0.000044 -0.000161
    12 H     0.000057 -0.000038  0.000005
    13 H    -0.000030  0.000055  0.000074
    14 O    -0.000001  0.000025 -0.000079
    15 H     0.000011 -0.000033  0.000030
    16 H     0.000038 -0.000005  0.000031
    17 H     0.000046 -0.000164  0.000106
 ----------------------------------------
 Mulliken charges used for AMS results%charges...

 dE(predicted):    -0.17329E-05, dE(actual):    -0.53594E-05, Trust radius:    0.400000, all in a.u.
 
----------------------------------------------------------------------
Geometry Convergence after Step  10       (Hartree/Angstrom,Angstrom)
----------------------------------------------------------------------
current energy                               -4.26822041 Hartree
energy change                      -0.00000536     0.00001700    T
constrained gradient max            0.00043701     0.00010000    F
constrained gradient rms            0.00013479     0.00006667    F
gradient max                        0.00043701
gradient rms                        0.00013479
cart. step max                      0.00399117     0.00100000    F
cart. step rms                      0.00162967     0.00066667    F
 
 
--------
Geometry
--------
Formula: H9ClO6Pa
Atoms
  Index Symbol   x (angstrom)   y (angstrom)   z (angstrom)
      1     Pa    -0.34768816    -0.08933403     0.53626217       adf.R=2.200
      2      O     1.68901894     1.24490170     0.99674647       adf.R=1.517
      3     Cl    -0.53042998     1.02079129    -1.82981684       adf.R=1.725
      4      O    -1.06086542     1.58533389     1.55950181       adf.R=1.517
      5      H     2.58380455     0.89414363     0.93396625       adf.R=1.350
      6      O    -1.10448438    -2.16944113    -0.67580392       adf.R=1.517
      7      H    -1.19952728    -2.25375365    -1.63086685       adf.R=1.350
      8      H    -0.93583587    -3.05447554    -0.33462508       adf.R=1.350
      9      H     1.69717409     1.96354874     1.63751572       adf.R=1.350
     10      O    -0.05756428    -1.25363048     1.92033705       adf.R=1.517
     11      O     1.74481283    -1.13374980    -0.40302554       adf.R=1.517
     12      H     2.03377804    -1.07702496    -1.32036549       adf.R=1.350
     13      H     2.12461484    -1.94200621    -0.04167261       adf.R=1.350
     14      O    -2.80811262    -0.40342303     0.56751275       adf.R=1.517
     15      H    -3.24009068    -1.24116916     0.36939803       adf.R=1.350
     16      H    -3.38263338     0.09322088     1.15939737       adf.R=1.350
     17      H    -1.26925071     1.91343517     2.43874495       adf.R=1.350
 
Total System Charge             1.00000
Bonding info available!
 
 *** GO1_GOStep11 ***

 SOLVATION
-------------------------------------------

  The Delley construction of COSMO surface surface is calculated

       Division Level for Surface Triangles (NDIV)                  3
       Final Division Level for Triangles (NFDIV)                   1
       Radius of the Solvent (RSOL)                           1.93000 angstr
  Dielectric Constant (EPSL)                                 78.39000

       COSMO equation is solved iteratively-               conjugate-gradient

       Maximun of Iterations for Charges (NCIX)                  1000
       Criterion for Charge convergence (CCNV)                1.0E-08

  COSMO charges included variationally in SCF

       COSMO included at every SCF cycle

  Geometry-dependent empirical factor                         0.00000

  C-Matrix calculated in cspmtx

  In cspmtx, C-Matrix calculated using fitted potential

-------------------------------------------



 -------------------------------------------
  COSMO surface
  Area             =          640.844
  Volume           =         1166.825
  Number of Points =         1539
 -------------------------------------------



 ======================
 RI Hartree-Fock Scheme
 ======================
  
 Fit Set Quality     : GOOD
 Threshold Quality   : GOOD
 Integration Quality : GOOD
 Fit Generation Method : AUTO
 Response Quality    : DEFAULT
 Is Range Separated  :  F
 
 RIHartreeFock Dependency: number of modified vectors:          11
 cosmo_calcen: 0.5 (esolb+esolc) (Hartrees) =   -0.122189

 Solvation energy (screening term,uncorrected) =    -76.674528 kcal/mol

 Solvation energy (dispersion and cavitation terms) =      1.198328 kcal/mol
 Solvation Energy Contributions (Hartrees)
          esola   esolb+esolc
     0.12218862   -0.24437725
 esol last cycle   -0.12218862
  
 Hartree-Fock exchange energy:   -546.364845935295     
 cosmo_calcen: 0.5 (esolb+esolc) (Hartrees) =   -0.122189

 Solvation energy (screening term,uncorrected) =    -76.674537 kcal/mol

 Solvation energy (dispersion and cavitation terms) =      1.198328 kcal/mol
 Solvation Energy Contributions (Hartrees)
          esola   esolb+esolc
     0.12218864   -0.24437728
 esol last cycle   -0.12218864

 Energy gradients wrt nuclear displacements
 ==========================================

     Atom      Cartesian (a.u./angstrom)
                 X         Y         Z
 ----------------------------------------
     1 Pa    0.000264 -0.000615  0.000396
     2 O    -0.000118  0.000012 -0.000011
     3 Cl   -0.000051  0.000061  0.000149
     4 O    -0.000126  0.000279 -0.000174
     5 H     0.000017  0.000039  0.000021
     6 O    -0.000053  0.000198  0.000019
     7 H    -0.000013 -0.000081 -0.000040
     8 H     0.000071 -0.000022 -0.000079
     9 H    -0.000004 -0.000011  0.000038
    10 O    -0.000054  0.000179 -0.000343
    11 O    -0.000132  0.000181 -0.000029
    12 H     0.000096 -0.000120 -0.000053
    13 H     0.000020  0.000042 -0.000001
    14 O     0.000002  0.000050 -0.000022
    15 H     0.000012 -0.000028  0.000008
    16 H     0.000033 -0.000021  0.000033
    17 H     0.000037 -0.000144  0.000088
 ----------------------------------------
 Mulliken charges used for AMS results%charges...

 dE(predicted):    -0.15847E-05, dE(actual):    -0.41970E-05, Trust radius:    0.400000, all in a.u.
 
----------------------------------------------------------------------
Geometry Convergence after Step  11       (Hartree/Angstrom,Angstrom)
----------------------------------------------------------------------
current energy                               -4.26822461 Hartree
energy change                      -0.00000420     0.00001700    T
constrained gradient max            0.00061196     0.00010000    F
constrained gradient rms            0.00014638     0.00006667    F
gradient max                        0.00061196
gradient rms                        0.00014638
cart. step max                      0.00359739     0.00100000    F
cart. step rms                      0.00131637     0.00066667    F
 
 
--------
Geometry
--------
Formula: H9ClO6Pa
Atoms
  Index Symbol   x (angstrom)   y (angstrom)   z (angstrom)
      1     Pa    -0.34767333    -0.08923325     0.53649166       adf.R=2.200
      2      O     1.68927849     1.24415698     0.99789801       adf.R=1.517
      3     Cl    -0.52918193     1.01720145    -1.83168707       adf.R=1.725
      4      O    -1.06065383     1.58541323     1.55937876       adf.R=1.517
      5      H     2.58388158     0.89312387     0.93405956       adf.R=1.350
      6      O    -1.10434497    -2.16967318    -0.67515115       adf.R=1.517
      7      H    -1.19839533    -2.25301246    -1.63040075       adf.R=1.350
      8      H    -0.93697549    -3.05523518    -0.33467427       adf.R=1.350
      9      H     1.69815193     1.96198337     1.63957280       adf.R=1.350
     10      O    -0.05836103    -1.25086628     1.92310120       adf.R=1.517
     11      O     1.74483405    -1.13284702    -0.40332806       adf.R=1.517
     12      H     2.03238699    -1.07346225    -1.32093116       adf.R=1.350
     13      H     2.12476545    -1.94254929    -0.04527000       adf.R=1.350
     14      O    -2.80809143    -0.40385486     0.56812019       adf.R=1.517
     15      H    -3.24007381    -1.24113506     0.36807749       adf.R=1.350
     16      H    -3.38312478     0.09191714     1.16022873       adf.R=1.350
     17      H    -1.26970205     1.91544010     2.43772030       adf.R=1.350
 
Total System Charge             1.00000
Bonding info available!
 
 *** GO1_GOStep12 ***

 SOLVATION
-------------------------------------------

  The Delley construction of COSMO surface surface is calculated

       Division Level for Surface Triangles (NDIV)                  3
       Final Division Level for Triangles (NFDIV)                   1
       Radius of the Solvent (RSOL)                           1.93000 angstr
  Dielectric Constant (EPSL)                                 78.39000

       COSMO equation is solved iteratively-               conjugate-gradient

       Maximun of Iterations for Charges (NCIX)                  1000
       Criterion for Charge convergence (CCNV)                1.0E-08

  COSMO charges included variationally in SCF

       COSMO included at every SCF cycle

  Geometry-dependent empirical factor                         0.00000

  C-Matrix calculated in cspmtx

  In cspmtx, C-Matrix calculated using fitted potential

-------------------------------------------



 -------------------------------------------
  COSMO surface
  Area             =          640.833
  Volume           =         1166.739
  Number of Points =         1538
 -------------------------------------------



 ======================
 RI Hartree-Fock Scheme
 ======================
  
 Fit Set Quality     : GOOD
 Threshold Quality   : GOOD
 Integration Quality : GOOD
 Fit Generation Method : AUTO
 Response Quality    : DEFAULT
 Is Range Separated  :  F
 
 RIHartreeFock Dependency: number of modified vectors:          11
 cosmo_calcen: 0.5 (esolb+esolc) (Hartrees) =   -0.122200

 Solvation energy (screening term,uncorrected) =    -76.681678 kcal/mol

 Solvation energy (dispersion and cavitation terms) =      1.198308 kcal/mol
 Solvation Energy Contributions (Hartrees)
          esola   esolb+esolc
     0.12220002   -0.24440004
 esol last cycle   -0.12220002
  
 Hartree-Fock exchange energy:   -546.364768835803     
 cosmo_calcen: 0.5 (esolb+esolc) (Hartrees) =   -0.122200

 Solvation energy (screening term,uncorrected) =    -76.681688 kcal/mol

 Solvation energy (dispersion and cavitation terms) =      1.198308 kcal/mol
 Solvation Energy Contributions (Hartrees)
          esola   esolb+esolc
     0.12220003   -0.24440007
 esol last cycle   -0.12220003

 Energy gradients wrt nuclear displacements
 ==========================================

     Atom      Cartesian (a.u./angstrom)
                 X         Y         Z
 ----------------------------------------
     1 Pa    0.000289 -0.000499  0.000133
     2 O    -0.000135 -0.000018  0.000022
     3 Cl   -0.000035  0.000023  0.000079
     4 O    -0.000078  0.000149 -0.000067
     5 H     0.000018  0.000044  0.000011
     6 O    -0.000070  0.000215  0.000006
     7 H     0.000002 -0.000063 -0.000029
     8 H     0.000052 -0.000057 -0.000108
     9 H     0.000004 -0.000017  0.000042
    10 O    -0.000072  0.000220 -0.000116
    11 O    -0.000205  0.000257 -0.000048
    12 H     0.000089 -0.000108  0.000003
    13 H     0.000091 -0.000011 -0.000040
    14 O    -0.000004  0.000030  0.000017
    15 H     0.000006 -0.000025  0.000005
    16 H     0.000023 -0.000019  0.000020
    17 H     0.000026 -0.000120  0.000071
 ----------------------------------------
 Mulliken charges used for AMS results%charges...

 dE(predicted):    -0.94600E-06, dE(actual):    -0.17247E-05, Trust radius:    0.400000, all in a.u.
 
----------------------------------------------------------------------
Geometry Convergence after Step  12       (Hartree/Angstrom,Angstrom)
----------------------------------------------------------------------
current energy                               -4.26822634 Hartree
energy change                      -0.00000172     0.00001700    T
constrained gradient max            0.00049631     0.00010000    F
constrained gradient rms            0.00011754     0.00006667    F
gradient max                        0.00049631
gradient rms                        0.00011754
cart. step max                      0.00151505     0.00100000    F
cart. step rms                      0.00054431     0.00066667    T
 
 
--------
Geometry
--------
Formula: H9ClO6Pa
Atoms
  Index Symbol   x (angstrom)   y (angstrom)   z (angstrom)
      1     Pa    -0.34786776    -0.08872121     0.53649604       adf.R=2.200
      2      O     1.68959360     1.24401739     0.99779943       adf.R=1.517
      3     Cl    -0.52855662     1.01627896    -1.83254952       adf.R=1.725
      4      O    -1.06057809     1.58517975     1.56051578       adf.R=1.517
      5      H     2.58397906     0.89243648     0.93401912       adf.R=1.350
      6      O    -1.10401369    -2.16973148    -0.67456994       adf.R=1.517
      7      H    -1.19779087    -2.25320163    -1.62982539       adf.R=1.350
      8      H    -0.93714834    -3.05518986    -0.33362499       adf.R=1.350
      9      H     1.69882729     1.96199589     1.63929601       adf.R=1.350
     10      O    -0.05846733    -1.25036534     1.92327279       adf.R=1.517
     11      O     1.74459718    -1.13246132    -0.40337068       adf.R=1.517
     12      H     2.03188215    -1.07194720    -1.32098217       adf.R=1.350
     13      H     2.12398859    -1.94285073    -0.04636446       adf.R=1.350
     14      O    -2.80825617    -0.40393460     0.56766513       adf.R=1.517
     15      H    -3.24000148    -1.24123023     0.36719333       adf.R=1.350
     16      H    -3.38375060     0.09163206     1.15950167       adf.R=1.350
     17      H    -1.26971643     1.91546039     2.43873410       adf.R=1.350
 
Total System Charge             1.00000
Bonding info available!
 
 *** GO1_GOStep13 ***

 SOLVATION
-------------------------------------------

  The Delley construction of COSMO surface surface is calculated

       Division Level for Surface Triangles (NDIV)                  3
       Final Division Level for Triangles (NFDIV)                   1
       Radius of the Solvent (RSOL)                           1.93000 angstr
  Dielectric Constant (EPSL)                                 78.39000

       COSMO equation is solved iteratively-               conjugate-gradient

       Maximun of Iterations for Charges (NCIX)                  1000
       Criterion for Charge convergence (CCNV)                1.0E-08

  COSMO charges included variationally in SCF

       COSMO included at every SCF cycle

  Geometry-dependent empirical factor                         0.00000

  C-Matrix calculated in cspmtx

  In cspmtx, C-Matrix calculated using fitted potential

-------------------------------------------



 -------------------------------------------
  COSMO surface
  Area             =          640.536
  Volume           =         1166.156
  Number of Points =         1536
 -------------------------------------------



 ======================
 RI Hartree-Fock Scheme
 ======================
  
 Fit Set Quality     : GOOD
 Threshold Quality   : GOOD
 Integration Quality : GOOD
 Fit Generation Method : AUTO
 Response Quality    : DEFAULT
 Is Range Separated  :  F
 
 RIHartreeFock Dependency: number of modified vectors:          11
 cosmo_calcen: 0.5 (esolb+esolc) (Hartrees) =   -0.122182

 Solvation energy (screening term,uncorrected) =    -76.670277 kcal/mol

 Solvation energy (dispersion and cavitation terms) =      1.197753 kcal/mol
 Solvation Energy Contributions (Hartrees)
          esola   esolb+esolc
     0.12218185   -0.24436370
 esol last cycle   -0.12218185
  
 Hartree-Fock exchange energy:   -546.364650614199     
 cosmo_calcen: 0.5 (esolb+esolc) (Hartrees) =   -0.122182

 Solvation energy (screening term,uncorrected) =    -76.670287 kcal/mol

 Solvation energy (dispersion and cavitation terms) =      1.197753 kcal/mol
 Solvation Energy Contributions (Hartrees)
          esola   esolb+esolc
     0.12218187   -0.24436373
 esol last cycle   -0.12218187

 Energy gradients wrt nuclear displacements
 ==========================================

     Atom      Cartesian (a.u./angstrom)
                 X         Y         Z
 ----------------------------------------
     1 Pa    0.000212 -0.000266 -0.000076
     2 O    -0.000082 -0.000030  0.000034
     3 Cl   -0.000020  0.000002  0.000040
     4 O    -0.000057  0.000090  0.000006
     5 H     0.000009  0.000040  0.000007
     6 O    -0.000056  0.000131 -0.000018
     7 H    -0.000005 -0.000018 -0.000027
     8 H     0.000045 -0.000031 -0.000083
     9 H    -0.000007 -0.000013  0.000036
    10 O    -0.000043  0.000113  0.000056
    11 O    -0.000148  0.000172 -0.000045
    12 H     0.000062 -0.000062 -0.000011
    13 H     0.000065  0.000024 -0.000023
    14 O    -0.000011 -0.000004  0.000008
    15 H    -0.000000 -0.000019  0.000010
    16 H     0.000016 -0.000021  0.000020
    17 H     0.000020 -0.000107  0.000065
 ----------------------------------------
 Mulliken charges used for AMS results%charges...
 
----------------------------------------------------------------------
Geometry Convergence after Step  13       (Hartree/Angstrom,Angstrom)
----------------------------------------------------------------------
current energy                               -4.26822700 Hartree
energy change                      -0.00000067     0.00001700    T
constrained gradient max            0.00026321     0.00010000    F
constrained gradient rms            0.00007232     0.00006667    F
gradient max                        0.00026321
gradient rms                        0.00007232
cart. step max                      0.00273046     0.00100000    F
cart. step rms                      0.00094929     0.00066667    F
 
 
--------
Geometry
--------
Formula: H9ClO6Pa
Atoms
  Index Symbol   x (angstrom)   y (angstrom)   z (angstrom)
      1     Pa    -0.34818411    -0.08790807     0.53671060       adf.R=2.200
      2      O     1.69017468     1.24375445     0.99767804       adf.R=1.517
      3     Cl    -0.52769412     1.01573682    -1.83323219       adf.R=1.725
      4      O    -1.06057662     1.58506690     1.56207297       adf.R=1.517
      5      H     2.58416637     0.89118325     0.93396637       adf.R=1.350
      6      O    -1.10326608    -2.16996168    -0.67331115       adf.R=1.517
      7      H    -1.19643390    -2.25381033    -1.62857055       adf.R=1.350
      8      H    -0.93736038    -3.05516837    -0.33133372       adf.R=1.350
      9      H     1.70007542     1.96198382     1.63887829       adf.R=1.350
     10      O    -0.05833769    -1.25046728     1.92287834       adf.R=1.517
     11      O     1.74412757    -1.13187170    -0.40346098       adf.R=1.517
     12      H     2.03088456    -1.06921674    -1.32107745       adf.R=1.350
     13      H     2.12229661    -1.94368731    -0.04849856       adf.R=1.350
[...]
     9     H       0.000131   0.005850   0.005146
    10     O       0.000040  -0.000031  -0.000016
    11     O      -0.004332   0.030754  -0.040686
    12     H      -0.140065  -0.029946   0.449052
    13     H       0.208964  -0.458764   0.197703
    14     O       0.000134  -0.001011  -0.000611
    15     H       0.005445   0.009697   0.002636
    16     H      -0.007263   0.006234   0.007350
    17     H      -0.000300   0.000393   0.001073
 
 Mode:    50      Frequency (cm-1):     3896.4687     Intensity (km/mol):      114.5045
 Index  Atom      ---- Displacements (x/y/z) ----
     1    Pa      -0.000001   0.000003   0.000001
     2     O      -0.036865   0.046903   0.031168
     3    Cl       0.000001   0.000000  -0.000003
     4     O      -0.000165   0.000201   0.000512
     5     H       0.595256  -0.233738  -0.039922
     6     O      -0.000012   0.000036   0.000183
     7     H      -0.000229  -0.000289  -0.003190
     8     H       0.000390  -0.000793   0.000219
     9     H      -0.008136  -0.512370  -0.455729
    10     O       0.000005  -0.000006  -0.000002
    11     O      -0.000035   0.000355  -0.000678
    12     H      -0.002690  -0.000477   0.008881
    13     H       0.002600  -0.004367   0.002334
    14     O       0.002803  -0.020501  -0.012538
    15     H       0.103881   0.199656   0.048337
    16     H      -0.148279   0.126571   0.151144
    17     H       0.001386  -0.003266  -0.008077
 
 Mode:    51      Frequency (cm-1):     3896.7178     Intensity (km/mol):      431.9034
 Index  Atom      ---- Displacements (x/y/z) ----
     1    Pa      -0.000004   0.000004   0.000005
     2     O      -0.013234   0.016853   0.011196
     3    Cl       0.000000   0.000002  -0.000007
     4     O      -0.000199   0.000377   0.000865
     5     H       0.213830  -0.083958  -0.014392
     6     O      -0.000209   0.000741  -0.001416
     7     H       0.001571   0.001688   0.017698
     8     H       0.001710  -0.012225   0.005084
     9     H      -0.002957  -0.184060  -0.163762
    10     O       0.000023  -0.000012   0.000022
    11     O      -0.000101   0.000332  -0.000313
    12     H      -0.000931  -0.000109   0.002745
    13     H       0.002430  -0.004923   0.002335
    14     O      -0.007846   0.056991   0.034875
    15     H      -0.288538  -0.554870  -0.134324
    16     H       0.412654  -0.352203  -0.420639
    17     H       0.003531  -0.005072  -0.013353

 Vibrational polarizability tensor (a.u.):
                  X                   Y                   Z
 X           44355.75421        -18623.62912         28612.92355
 Y          -18623.62912         12828.47991        -14371.49233
 Z           28612.92355        -14371.49233         22968.85167

 Isotropic =      26718.    atomic units

PES point character: Geometry corresponds to a local minimum on the PES.




 ============================
 Statistical Thermal Analysis  ***  ideal gas assumed  ***
 ============================
  
 Pressure:                  1.000000 atm.
 Temperature:             298.150000 K



 Moments of Inertia [amu*bohr^2] and principal axis
 ==================================================

        1900.4298       1967.2003       2110.7505
 ------------------------------------------------
           0.9334          0.0266         -0.3578
           0.3472          0.1840          0.9196
           0.0903         -0.9826          0.1626


 The rotational contribution to the molecular entropy includes
 a term, dependent on the symmetry number sigma. The results 
 reported below were computed using sigma = 1, determined from
 the point group symmetry of the input geometry (NOSYM). 
 If this is not the correct symmetry, try symmetrizing the molecule before
 running the calculation (note: linear molecules should be aligned along one
 of the Cartesian axes).
 Contributions from frequencies below 20 1/cm are not included in vibrational sums.
 Their contributions, if any, are reported separately.


     Temp                                                        Transl      Rotat     Vibrat     Total
     ----                                                        ------      -----     ------     -----

     298.15   Entropy (cal/mol-K):                               43.626     30.446     62.082    136.154
              Nuclear Internal Energy (kcal/mol):                 0.889      0.889     80.364     82.142
              Constant Volume Heat Capacity (cal/mol-K):          2.981      2.981     52.307     58.269
          (c) Constant Volume Heat Capacity (cal/mol-K):          2.981      2.981     48.437     54.399

 Contributions from frequencies below 20 1/cm
 Frequency (1/cm):                                   16.030
 Entropy (cal/mol-K):                                 7.074
 Nuclear Internal Energy (kcal/mol):                  0.593
 Constant Volume Heat Capacity (cal/mol-K):           1.986

       Summary of energy terms
                                                   hartree              eV         kcal/mol           kJ/mol
                                      --------------------     -----------       ----------      -----------
      Energy from Engine:               -4.268232584527380       -116.1445         -2678.36        -11206.24
      Nuclear Internal Energy:           0.130900852279838          3.5620            82.14           343.68
  (c) Nuclear Internal Energy:           0.128821937866743          3.5054            80.84           338.22
      Internal Energy U:                -4.137331732247542       -112.5825         -2596.22        -10862.56
      pV/n = RT:                         0.000944186013486          0.0257             0.59             2.48
      Enthalpy H:                       -4.136387546234056       -112.5568         -2595.62        -10860.08
      -T*S:                             -0.064691217145129         -1.7603           -40.59          -169.85
  (c) -T*S:                             -0.065311228119461         -1.7772           -40.98          -171.47
      Gibbs free energy:                -4.201078763379186       -114.3172         -2636.22        -11029.93
 
 
 
  (c) The properties marked with this symbol have been corrected using 'low vibrational frequency free rotor
      interpolation corrections'. For those terms all positive frequencies are used (also ones below 20 1/cm),
      but the contribution to the partition function of small vibrational frequencies is modified as described
      in the following paper:
      S. Grimme, 'Supramolecular Binding Thermodynamics by Dispersion-Corrected Density Functional Theory'
      (Chem. Eur. J. 2012, 18, 9955-9964)
      Configuration: Dampener Frequency          :   100.000 1/cm
                     Dampener Alpha              :     4.000
                     Averaging Moment of Inertia : 1.000E-44 kg m2

--------------
Atomic charges
--------------
  Index   Atom    Charge
      1     Pa    2.4697
      2      O   -0.3838
      3     Cl   -0.4545
      4      O   -0.6715
      5      H    0.2363
      6      O   -0.4163
      7      H    0.2416
      8      H    0.2582
      9      H    0.2406
     10      O   -0.8060
     11      O   -0.4149
     12      H    0.2412
     13      H    0.2574
     14      O   -0.3838
     15      H    0.2365
     16      H    0.2403
     17      H    0.1090


Dipole moment vector    (Debye):     0.69489466   -6.69442888    1.75628978
              magnitude (Debye):     6.95577533


-----------------------
Molecular orbitals info
-----------------------
n orbitals:              424
n spin:                    1

Note: only printing virtual orbitals with
      energy smaller than HOMO + 100. eV

HOMO (eV):              -8.5263
LUMO (eV):              -2.1100
HOMO-LUMO gap (eV):      6.4162

   Index   Energy (eV)    Occupation
     271       91.1474         0.000       
     270       89.9061         0.000       
     269       89.4217         0.000       
     268       87.6805         0.000       
     267       86.8455         0.000       
     266       86.8288         0.000       
     265       85.5041         0.000       
     264       85.4024         0.000       
     263       85.2221         0.000       
     262       84.7751         0.000       
     261       83.7827         0.000       
     260       83.0053         0.000       
     259       82.9378         0.000       
     258       81.9472         0.000       
     257       81.8350         0.000       
     256       81.4789         0.000       
     255       79.3793         0.000       
     254       78.6700         0.000       
     253       77.6292         0.000       
     252       77.3394         0.000       
     251       77.0219         0.000       
     250       76.0959         0.000       
     249       75.4637         0.000       
     248       74.3574         0.000       
     247       73.0812         0.000       
     246       72.7846         0.000       
     245       72.2485         0.000       
     244       71.8830         0.000       
     243       70.5033         0.000       
     242       70.1222         0.000       
     241       69.3548         0.000       
     240       68.9612         0.000       
     239       67.6997         0.000       
     238       67.5876         0.000       
     237       66.3125         0.000       
     236       65.1364         0.000       
     235       64.2138         0.000       
     234       63.6761         0.000       
     233       62.5575         0.000       
     232       61.6255         0.000       
     231       61.4053         0.000       
     230       60.8275         0.000       
     229       58.2572         0.000       
     228       57.5202         0.000       
     227       57.3749         0.000       
     226       56.4514         0.000       
     225       56.0693         0.000       
     224       55.6198         0.000       
     223       54.4572         0.000       
     222       54.3073         0.000       
     221       53.2125         0.000       
     220       52.8434         0.000       
     219       52.3565         0.000       
     218       51.9048         0.000       
     217       50.4197         0.000       
     216       49.9783         0.000       
     215       48.5204         0.000       
     214       47.6618         0.000       
     213       46.7423         0.000       
     212       46.7237         0.000       
     211       46.2923         0.000       
     210       45.6873         0.000       
     209       45.4776         0.000       
     208       44.7836         0.000       
     207       44.7052         0.000       
     206       43.0539         0.000       
     205       42.6759         0.000       
     204       42.1700         0.000       
     203       41.7108         0.000       
     202       41.2467         0.000       
     201       40.7308         0.000       
     200       40.6727         0.000       
     199       39.9061         0.000       
     198       39.5217         0.000       
     197       39.0538         0.000       
     196       38.6414         0.000       
     195       38.5803         0.000       
     194       38.5459         0.000       
     193       37.4080         0.000       
     192       37.3829         0.000       
     191       36.7478         0.000       
     190       36.3908         0.000       
     189       36.3270         0.000       
     188       36.2456         0.000       
     187       35.9260         0.000       
     186       35.4894         0.000       
     185       35.3760         0.000       
     184       35.0894         0.000       
     183       35.0492         0.000       
     182       34.5569         0.000       
     181       34.5175         0.000       
     180       34.0953         0.000       
     179       33.9167         0.000       
     178       33.8388         0.000       
     177       32.7797         0.000       
     176       32.4091         0.000       
     175       31.8904         0.000       
     174       31.6922         0.000       
     173       30.5804         0.000       
     172       30.1354         0.000       
     171       29.3068         0.000       
     170       28.3441         0.000       
     169       28.1279         0.000       
     168       26.9289         0.000       
     167       26.1492         0.000       
     166       26.0929         0.000       
     165       24.5458         0.000       
     164       23.7792         0.000       
     163       23.2798         0.000       
     162       22.6737         0.000       
     161       22.1895         0.000       
     160       21.9125         0.000       
     159       21.7066         0.000       
     158       21.0604         0.000       
     157       20.0790         0.000       
     156       19.5001         0.000       
     155       18.6071         0.000       
     154       18.5058         0.000       
     153       18.0419         0.000       
     152       17.5390         0.000       
     151       17.3769         0.000       
     150       17.0272         0.000       
     149       16.9281         0.000       
     148       16.8570         0.000       
     147       16.7023         0.000       
     146       16.4697         0.000       
     145       16.2210         0.000       
     144       16.0923         0.000       
     143       15.9553         0.000       
     142       15.4279         0.000       
     141       15.1434         0.000       
     140       14.8406         0.000       
     139       14.6725         0.000       
     138       14.6291         0.000       
     137       14.2352         0.000       
     136       14.0632         0.000       
     135       13.6437         0.000       
     134       13.3034         0.000       
     133       13.2799         0.000       
     132       12.9304         0.000       
     131       12.6127         0.000       
     130       12.0901         0.000       
     129       11.9540         0.000       
     128       11.6153         0.000       
     127       10.6988         0.000       
     126       10.4675         0.000       
     125       10.0114         0.000       
     124        9.8204         0.000       
     123        9.5301         0.000       
     122        9.3916         0.000       
     121        9.2819         0.000       
     120        9.0757         0.000       
     119        8.2914         0.000       
     118        8.1417         0.000       
     117        7.8517         0.000       
     116        7.6097         0.000       
     115        7.3633         0.000       
     114        7.0830         0.000       
     113        6.8616         0.000       
     112        5.7671         0.000       
     111        5.4799         0.000       
     110        5.3302         0.000       
     109        5.0169         0.000       
     108        4.4295         0.000       
     107        4.3083         0.000       
     106        4.2018         0.000       
     105        3.4720         0.000       
     104        3.3545         0.000       
     103        3.1299         0.000       
     102        2.6249         0.000       
     101        2.3525         0.000       
     100        2.2758         0.000       
      99        1.9275         0.000       
      98        1.9178         0.000       
      97        1.8260         0.000       
      96        1.6044         0.000       
      95        1.5209         0.000       
      94        1.1809         0.000       
      93        0.8590         0.000       
      92        0.4142         0.000       
      91        0.2858         0.000       
      90       -0.5193         0.000       
      89       -1.1700         0.000       
      88       -1.5846         0.000       
      87       -1.6313         0.000       
      86       -1.7177         0.000       
      85       -1.9151         0.000       
      84       -2.0201         0.000       
      83       -2.1100         0.000 < LUMO
      82       -8.5263         2.000 < HOMO
      81       -9.0532         2.000       
      80       -9.1409         2.000       
      79       -9.6737         2.000       
      78       -9.9012         2.000       
      77      -10.0329         2.000       
      76      -10.0538         2.000       
      75      -10.4678         2.000       
      74      -10.4771         2.000       
      73      -10.9668         2.000       
      72      -10.9967         2.000       
      71      -11.2296         2.000       
      70      -12.7218         2.000       
      69      -12.9618         2.000       
      68      -13.5149         2.000       
      67      -13.8706         2.000       
      66      -14.2416         2.000       
      65      -16.4561         2.000       
      64      -16.5075         2.000       
      63      -16.5436         2.000       
      62      -16.5680         2.000       
      61      -20.9391         2.000       
      60      -22.8208         2.000       
      59      -24.6874         2.000       
      58      -25.6176         2.000       
      57      -28.5871         2.000       
      56      -29.8893         2.000       
      55      -29.9105         2.000       
      54      -30.0779         2.000       
      53      -30.2235         2.000       
      52      -30.2512         2.000       
      51      -50.6045         2.000       
      50     -100.4723         2.000       
      49     -100.5032         2.000       
      48     -100.5244         2.000       
      47     -100.6061         2.000       
      46     -100.6089         2.000       
      45     -196.7357         2.000       
      44     -196.7398         2.000       
      43     -196.7682         2.000       
      42     -207.6221         2.000       
      41     -207.8715         2.000       
      40     -207.8851         2.000       
      39     -260.2996         2.000       
      38     -306.3155         2.000       
      37     -361.5528         2.000       
      36     -361.5770         2.000       
      35     -361.6076         2.000       
      34     -361.7204         2.000       
      33     -361.7249         2.000       
      32     -361.8513         2.000       
      31     -361.8527         2.000       
      30     -522.8547         2.000       
      29     -523.0681         2.000       
      28     -524.6672         2.000       
      27     -524.6769         2.000       
      26     -524.7094         2.000       
      25     -524.7142         2.000       
      24     -713.3735         2.000       
      23     -713.5032         2.000       
      22     -713.5374         2.000       
      21     -713.6954         2.000       
      20     -713.7061         2.000       
      19    -1041.6554         2.000       
      18    -1041.9369         2.000       
      17    -1041.9892         2.000       
      16    -1360.0386         2.000       
      15    -2776.4831         2.000       
      14    -3485.2495         2.000       
      13    -3485.2988         2.000       
      12    -3485.3123         2.000       
      11    -3485.3871         2.000       
      10    -3485.3910         2.000       
       9    -4347.4627         2.000       
       8    -4347.6208         2.000       
       7    -4347.6477         2.000       
       6    -5318.6370         2.000       
       5   -17561.5654         2.000       
       4   -17561.5894         2.000       
       3   -17561.5907         2.000       
       2   -21037.3809         2.000       
       1  -112699.1342         2.000       

Final PES point is a local minimum. Geometry optimization successful!


AMS application finished. Exiting.
NORMAL TERMINATION
     Total cpu time:   46531.17
  Total system time:     670.32
 Total elapsed time:   47228.18
