

 Parallel Execution: Process Information
 ==============================================================================
 Rank   Node Name                              NodeID   MyNodeRank  NodeMaster
    0   u-0-4.local                               0          0          0
    1   u-0-4.local                               0          1         -1
    2   u-0-4.local                               1          0          1
    3   u-0-4.local                               1          1         -1
    4   u-0-4.local                               2          0          2
    5   u-0-4.local                               2          1         -1
    6   u-0-4.local                               3          0          3
    7   u-0-4.local                               3          1         -1
 ==============================================================================


May use up to 31228MB of RAM as shared memory on node 0
May use up to 31250MB of RAM as shared memory on node 2
May use up to 31250MB of RAM as shared memory on node 3
May use up to 31250MB of RAM as shared memory on node 1

 *******************************************************************************
 *                                                                             *
 *  --------------------------------                                           *
 *   Amsterdam Modeling Suite (AMS)              2024.103                      *
 *  --------------------------------                                           *
 *                                               r241004 2024-10-04 d82be5f7   *
 *                                                                             *
 *                                                                             *
 *                              =================                              *
 *                              |               |                              *
 *                              |     A M S     |                              *
 *                              |               |                              *
 *                              =================                              *
 *                                                                             *
 *                                                                             *
 *   Online information and documentation:  https://www.scm.com/support/       *
 *   E-mail:  support@scm.com   info@scm.com                                   *
 *                                                                             *
 *   Scientific publications using AMS results must be properly referenced     *
 *   See the User Manuals (or the web site) for recommended citations          *
 *   The terms and conditions of the End User License Agreement apply to       *
 *   the use of AMS, https://www.scm.com/license-terms/                        *
 *                                                                             *
 **********************  x86_64_linux_intel / intelmpi  ************************
 
 Licensed to: Dr. Val?rie Vallet / Laboratoire PhLAM UMR 8523 / Villeneuve d'Ascq Cedex / FRANCE 2024-12-20 16:14:47
 SCM User ID: u10325
  
 AMS 2024.103  RunTime: Apr28-2025 17:21:02  ShM Nodes: 4  Procs: 8

 AMS jobname: pao_oh_cl_4h2o.SR.pbe0.tz2p.opt-freq-solvation-fixed_pa_wat
 AMS jobid  : 1211416095

 Start   directory: /state/partition2/shaaban/1050760.phlam-s-sakura/
 Results directory: /home/shaaban/ams/PhD/geometries-exafs/pao_oh_cl_4h2o/PBE0/pao_oh_cl_4h2o.SR.pbe0.tz2p.opt-freq-solvation-fixed_pa_wat.results/
 Scratch directory: /state/partition2/shaaban/1050760.phlam-s-sakura/amstmp_pao_oh_cl_4h2o.SR.pbe0.tz2p.opt-freq-solvation-fixed_pa_wat_kid0.1211416095/


 Communication costs MPI_COMM_WORLD:      2.762 usec per message,   0.0090 usec per 8-byte item
 Communication costs for intra-node:      0.641 usec per message,   0.0025 usec per 8-byte item

 RNG seed: 1516205356 -289058604 -1598594638 -1015404583 662991579 -1604045589 -462295034 1088362932



                      ************************************************************************
                      *  ADF 2024.103  RunTime: Apr28-2025 17:21:03  ShM Nodes: 4  Procs: 8  *
                      ************************************************************************
  

       ***************************
       *  GEOMETRY OPTIMIZATION  *
       ***************************

Optimization Method                    Quasi Newton
Optimization Coordinates               Delocalized Coordinates
Optimize lattice                       F
 
 ------------------------------------------------------
 Convergence criteria (Hartree,Angstrom)
 ------------------------------------------------------
 Maximum gradient               0.000100000000
 Maximum rms gradient           0.000066666667
 Maximum step allowed           0.001000000000
 Maximum rms step allowed       0.000666666667
 Maximum energy change allowe   0.000017000000
 Maximum stress energy allowe   0.000500000000
 
Initial model Hessian                  Automatic Hessian
 
------------------------------------
Quasi-Newton Optimizer Parameters
------------------------------------
Hessian Update Method                  BFGS
Maximum number of steps                  250
First GDIIS cycle                          0
Maximum GDIIS vectors                      0
Trust radius (bohr)                        0.200000
Trust radius varies                        T
Constraints converged at all steps         T
Use projector                              T
 
 Rigid motions settings for: old optimizer
 Atomic rotations (x,y,z):     T T T
 Atomic translations (x,y,z):  T T T
 Tolerance:                   1.000000000000000E-006
 
--------
Geometry
--------
Formula: H9ClO6Pa
Atoms
  Index Symbol   x (angstrom)   y (angstrom)   z (angstrom)
      1     Pa    -0.33465099    -0.25833956     0.50073323       adf.R=2.200
      2      O     1.63299536     1.13556693     0.93419896       adf.R=1.517
      3      O    -0.50740693     0.66494340    -1.33378536       adf.R=1.517
      4     Cl    -1.25005809     1.86684307     1.89948969       adf.R=1.725
      5      H    -0.77719218     1.52528568    -1.70045383       adf.R=1.350
      6      O    -1.10264866    -2.25577026    -0.69214153       adf.R=1.517
      7      H    -1.14745786    -2.29179144    -1.66371474       adf.R=1.350
      8      H    -0.85895328    -3.15085609    -0.39829176       adf.R=1.350
      9      H     1.61060555     1.69455423     1.73002709       adf.R=1.350
     10      O    -0.06997609    -1.35144871     1.95790813       adf.R=1.517
     11      O     1.73320751    -1.23012121    -0.38363187       adf.R=1.517
     12      H     1.97218382    -1.19363863    -1.32632157       adf.R=1.350
     13      H     2.07402078    -2.07778079    -0.04939292       adf.R=1.350
     14      O    -2.77200945    -0.50478431     0.53311760       adf.R=1.517
     15      H    -3.12923331    -1.40532356     0.44208779       adf.R=1.350
     16      H    -3.24556449    -0.09337384     1.27655879       adf.R=1.350
     17      H     2.49722829     0.68818018     0.93468509       adf.R=1.350
 
Total System Charge             1.00000
Bonding info available!
 
 
----------------
ADF Engine Input
----------------
 
 Basis
 Type TZ2P
 Core None
 End
 XC
 Hybrid PBE0
 End
 Solvation
 Surf Delley
 Solv name=Water cav0=0.0 cav1=0.0067639
 Charged method=CONJ
 C-Mat POT
 SCF VAR ALL
 CSMRSP
 End
 NumericalQuality Good
 MBPT
 SigmaFunctionalParametrization W1
 End
 

 Title: *** (NO TITLE) ***

 Using automatic Hessian for delocalized coordinates.
 *** GO1_GOStep1 ***

 SOLVATION
-------------------------------------------

  The Delley construction of COSMO surface surface is calculated

       Division Level for Surface Triangles (NDIV)                  3
       Final Division Level for Triangles (NFDIV)                   1
       Radius of the Solvent (RSOL)                           1.93000 angstr
  Dielectric Constant (EPSL)                                 78.39000

       COSMO equation is solved iteratively-               conjugate-gradient

       Maximun of Iterations for Charges (NCIX)                  1000
       Criterion for Charge convergence (CCNV)                1.0E-08

  COSMO charges included variationally in SCF

       COSMO included at every SCF cycle

  Geometry-dependent empirical factor                         0.00000

  C-Matrix calculated in cspmtx

  In cspmtx, C-Matrix calculated using fitted potential

-------------------------------------------



 -------------------------------------------
  COSMO surface
  Area             =          635.273
  Volume           =         1163.775
  Number of Points =         1537
 -------------------------------------------
 
 RIHartreeFock Dependency: number of modified vectors:          10
 cosmo_calcen: 0.5 (esolb+esolc) (Hartrees) =   -0.133560

 Solvation energy (screening term,uncorrected) =    -83.809939 kcal/mol

 Solvation energy (dispersion and cavitation terms) =      1.187912 kcal/mol
 Solvation Energy Contributions (Hartrees)
          esola   esolb+esolc
     0.13355962   -0.26711925
 esol last cycle   -0.13355962
  
 Hartree-Fock exchange energy:   -546.350825137874     
 cosmo_calcen: 0.5 (esolb+esolc) (Hartrees) =   -0.133560

 Solvation energy (screening term,uncorrected) =    -83.809919 kcal/mol

 Solvation energy (dispersion and cavitation terms) =      1.187912 kcal/mol
 Solvation Energy Contributions (Hartrees)
          esola   esolb+esolc
     0.13355959   -0.26711919
 esol last cycle   -0.13355959

 Energy gradients wrt nuclear displacements
 ==========================================

     Atom      Cartesian (a.u./angstrom)
                 X         Y         Z
 ----------------------------------------
     1 Pa    0.002339 -0.005365 -0.007746
     2 O    -0.022482 -0.006717 -0.019985
     3 O     0.003431 -0.008202 -0.009207
     4 Cl   -0.001491  0.003751  0.002198
     5 H    -0.004603  0.014398 -0.004687
     6 O    -0.004923  0.024381  0.016658
     7 H     0.000786 -0.000033 -0.015447
     8 H     0.005506 -0.013902  0.004569
     9 H    -0.000439  0.005860  0.012779
    10 O     0.003291 -0.013114  0.017530
    11 O    -0.014980  0.020447  0.015722
    12 H     0.002578  0.000019 -0.015281
    13 H     0.003912 -0.013811  0.004909
    14 O     0.024291  0.010099 -0.015558
    15 H    -0.004292 -0.014160  0.000209
    16 H    -0.005351  0.004413  0.011968
    17 H     0.012427 -0.008064  0.001370
 ----------------------------------------
 Mulliken charges used for AMS results%charges...
 Residual max backtransformation error   0.9280E-02


 Constraint values: difference between the actual and the fixed coord values, a.u.
 =================================================================================

 Index  Constr. value     Atom indices
 ------------- NON-BLOCK constraints -------------------
     1    0.00000E+00     1    11
     2    0.00000E+00     1     6
     3   -0.88818E-15     1     2
     4    0.00000E+00     1    14
 -------------------------------------------------------
 
----------------------------------------------------------------------
Geometry Convergence after Step   1       (Hartree/Angstrom,Angstrom)
----------------------------------------------------------------------
current energy                               -4.27438343 Hartree
energy change                      -4.27438343     0.00001700    F
constrained gradient max            0.01752522     0.00010000    F
constrained gradient rms            0.00835899     0.00006667    F
gradient max                        0.02438460
gradient rms                        0.01126608
cart. step max                      0.01937803     0.00100000    F
cart. step rms                      0.00794208     0.00066667    F
 
 
--------
Geometry
--------
Formula: H9ClO6Pa
Atoms
  Index Symbol   x (angstrom)   y (angstrom)   z (angstrom)
      1     Pa    -0.33216672    -0.26226631     0.49669653       adf.R=2.200
      2      O     1.62672150     1.13810677     0.94859494       adf.R=1.517
      3      O    -0.50491438     0.66120839    -1.32927320       adf.R=1.517
      4     Cl    -1.24674544     1.85721964     1.89951067       adf.R=1.725
      5      H    -0.77167659     1.51318558    -1.69597638       adf.R=1.350
      6      O    -1.09007067    -2.26316416    -0.69682321       adf.R=1.517
      7      H    -1.14409767    -2.30204463    -1.65979007       adf.R=1.350
      8      H    -0.85798070    -3.15235959    -0.40236414       adf.R=1.350
      9      H     1.59968271     1.70276263     1.73140522       adf.R=1.350
     10      O    -0.06851225    -1.35175073     1.94420741       adf.R=1.517
     11      O     1.72866914    -1.24161028    -0.39568284       adf.R=1.517
     12      H     1.97137485    -1.20033270    -1.32890624       adf.R=1.350
     13      H     2.07457099    -2.07849147    -0.06226423       adf.R=1.350
     14      O    -2.77026565    -0.49859788     0.54487330       adf.R=1.517
     15      H    -3.13734578    -1.38603041     0.44593007       adf.R=1.350
     16      H    -3.24303956    -0.08124800     1.27615132       adf.R=1.350
     17      H     2.49088620     0.70755821     0.94478366       adf.R=1.350
 
Total System Charge             1.00000
Bonding info available!
 
 *** GO1_GOStep2 ***

 SOLVATION
-------------------------------------------

  The Delley construction of COSMO surface surface is calculated

       Division Level for Surface Triangles (NDIV)                  3
       Final Division Level for Triangles (NFDIV)                   1
       Radius of the Solvent (RSOL)                           1.93000 angstr
  Dielectric Constant (EPSL)                                 78.39000

       COSMO equation is solved iteratively-               conjugate-gradient

       Maximun of Iterations for Charges (NCIX)                  1000
       Criterion for Charge convergence (CCNV)                1.0E-08

  COSMO charges included variationally in SCF

       COSMO included at every SCF cycle

  Geometry-dependent empirical factor                         0.00000

  C-Matrix calculated in cspmtx

  In cspmtx, C-Matrix calculated using fitted potential

-------------------------------------------



 -------------------------------------------
  COSMO surface
  Area             =          633.398
  Volume           =         1158.228
  Number of Points =         1532
 -------------------------------------------
 
 RIHartreeFock Dependency: number of modified vectors:          10
 cosmo_calcen: 0.5 (esolb+esolc) (Hartrees) =   -0.132752

 Solvation energy (screening term,uncorrected) =    -83.302861 kcal/mol

 Solvation energy (dispersion and cavitation terms) =      1.184405 kcal/mol
 Solvation Energy Contributions (Hartrees)
          esola   esolb+esolc
     0.13275155   -0.26550309
 esol last cycle   -0.13275155
  
 Hartree-Fock exchange energy:   -546.398138528078     
 cosmo_calcen: 0.5 (esolb+esolc) (Hartrees) =   -0.132752

 Solvation energy (screening term,uncorrected) =    -83.302859 kcal/mol

 Solvation energy (dispersion and cavitation terms) =      1.184405 kcal/mol
 Solvation Energy Contributions (Hartrees)
          esola   esolb+esolc
     0.13275154   -0.26550308
 esol last cycle   -0.13275154

 Energy gradients wrt nuclear displacements
 ==========================================

     Atom      Cartesian (a.u./angstrom)
                 X         Y         Z
 ----------------------------------------
     1 Pa    0.003194 -0.009628 -0.001516
     2 O    -0.011832 -0.005238 -0.008756
     3 O    -0.000045  0.002103 -0.010072
     4 Cl   -0.000770  0.002071  0.001165
     5 H    -0.000487  0.001224  0.001266
     6 O    -0.000773  0.011137  0.007229
     7 H     0.001521 -0.000009 -0.001249
     8 H     0.001925 -0.000867 -0.000342
     9 H     0.000022 -0.001056  0.002393
    10 O     0.001275 -0.004847  0.006335
    11 O    -0.007835  0.008387  0.006673
    12 H    -0.000659 -0.000998 -0.001377
    13 H    -0.000785 -0.001741 -0.000435
    14 O     0.013843  0.003829 -0.006336
    15 H     0.000700 -0.001675  0.001354
    16 H     0.000298 -0.000786  0.002393
    17 H     0.000409 -0.001907  0.001277
 ----------------------------------------
 Mulliken charges used for AMS results%charges...

 dE(predicted):    -0.88439E-03, dE(actual):    -0.11214E-02, Trust radius:    0.200000, all in a.u.
 Residual max backtransformation error   0.1665E-01


 Constraint values: difference between the actual and the fixed coord values, a.u.
 =================================================================================

 Index  Constr. value     Atom indices
 ------------- NON-BLOCK constraints -------------------
     1    0.00000E+00     1    11
     2    0.00000E+00     1     6
     3    0.00000E+00     1     2
     4    0.88818E-15     1    14
 -------------------------------------------------------
 
----------------------------------------------------------------------
Geometry Convergence after Step   2       (Hartree/Angstrom,Angstrom)
----------------------------------------------------------------------
current energy                               -4.27550486 Hartree
energy change                      -0.00112143     0.00001700    F
constrained gradient max            0.01006762     0.00010000    F
constrained gradient rms            0.00266929     0.00006667    F
gradient max                        0.01384644
gradient rms                        0.00478776
cart. step max                      0.01766335     0.00100000    F
cart. step rms                      0.00816624     0.00066667    F
 
 
--------
Geometry
--------
Formula: H9ClO6Pa
Atoms
  Index Symbol   x (angstrom)   y (angstrom)   z (angstrom)
      1     Pa    -0.32915482    -0.26679777     0.49097964       adf.R=2.200
      2      O     1.62195998     1.13691390     0.96557902       adf.R=1.517
      3      O    -0.50209232     0.65794439    -1.32525398       adf.R=1.517
      4     Cl    -1.24348603     1.84625373     1.89864958       adf.R=1.725
      5      H    -0.76673519     1.50539866    -1.69812061       adf.R=1.350
      6      O    -1.08195312    -2.27093771    -0.70032966       adf.R=1.517
      7      H    -1.15327502    -2.31439395    -1.65951007       adf.R=1.350
      8      H    -0.86950539    -3.16038652    -0.39992512       adf.R=1.350
      9      H     1.58972238     1.71463716     1.73558769       adf.R=1.350
     10      O    -0.06628381    -1.35447497     1.93087689       adf.R=1.517
     11      O     1.72730181    -1.24939603    -0.40790121       adf.R=1.517
     12      H     1.98056007    -1.19818924    -1.33528042       adf.R=1.350
     13      H     2.08737680    -2.07561364    -0.06974246       adf.R=1.350
     14      O    -2.76754452    -0.49547264     0.55778908       adf.R=1.517
     15      H    -3.15014731    -1.37225514     0.44659501       adf.R=1.350
     16      H    -3.24415507    -0.06630669     1.27644980       adf.R=1.350
     17      H     2.49250155     0.72522157     0.95462964       adf.R=1.350
 
Total System Charge             1.00000
Bonding info available!
 
 *** GO1_GOStep3 ***

 SOLVATION
-------------------------------------------

  The Delley construction of COSMO surface surface is calculated

       Division Level for Surface Triangles (NDIV)                  3
       Final Division Level for Triangles (NFDIV)                   1
       Radius of the Solvent (RSOL)                           1.93000 angstr
  Dielectric Constant (EPSL)                                 78.39000

       COSMO equation is solved iteratively-               conjugate-gradient

       Maximun of Iterations for Charges (NCIX)                  1000
       Criterion for Charge convergence (CCNV)                1.0E-08

  COSMO charges included variationally in SCF

       COSMO included at every SCF cycle

  Geometry-dependent empirical factor                         0.00000

  C-Matrix calculated in cspmtx

  In cspmtx, C-Matrix calculated using fitted potential

-------------------------------------------



 -------------------------------------------
  COSMO surface
  Area             =          631.801
  Volume           =         1153.531
  Number of Points =         1529
 -------------------------------------------
 
 RIHartreeFock Dependency: number of modified vectors:          10
 cosmo_calcen: 0.5 (esolb+esolc) (Hartrees) =   -0.131978

 Solvation energy (screening term,uncorrected) =    -82.817179 kcal/mol

 Solvation energy (dispersion and cavitation terms) =      1.181418 kcal/mol
 Solvation Energy Contributions (Hartrees)
          esola   esolb+esolc
     0.13197756   -0.26395512
 esol last cycle   -0.13197756
  
 Hartree-Fock exchange energy:   -546.418944950972     
 cosmo_calcen: 0.5 (esolb+esolc) (Hartrees) =   -0.131978

 Solvation energy (screening term,uncorrected) =    -82.817181 kcal/mol

 Solvation energy (dispersion and cavitation terms) =      1.181418 kcal/mol
 Solvation Energy Contributions (Hartrees)
          esola   esolb+esolc
     0.13197756   -0.26395513
 esol last cycle   -0.13197756

 Energy gradients wrt nuclear displacements
 ==========================================

     Atom      Cartesian (a.u./angstrom)
                 X         Y         Z
 ----------------------------------------
     1 Pa    0.003434 -0.011421  0.002109
     2 O    -0.008376 -0.004505 -0.003958
     3 O    -0.000598  0.003017 -0.006675
     4 Cl   -0.000069  0.000380  0.000153
     5 H     0.000686 -0.002544  0.003082
     6 O     0.001258  0.006387  0.003984
     7 H     0.001519  0.000503  0.002816
     8 H     0.000780  0.002988 -0.001325
     9 H    -0.000160 -0.002886 -0.001048
    10 O    -0.000329  0.001595 -0.002356
    11 O    -0.005686  0.003774  0.003303
    12 H    -0.001745 -0.000809  0.002588
    13 H    -0.002187  0.001830 -0.001442
    14 O     0.010210  0.002057 -0.002211
    15 H     0.002558  0.001895  0.001195
    16 H     0.002014 -0.001985 -0.000851
    17 H    -0.003310 -0.000278  0.000635
 ----------------------------------------
 Mulliken charges used for AMS results%charges...

 dE(predicted):    -0.28989E-03, dE(actual):    -0.51198E-03, Trust radius:    0.400000, all in a.u.
 Residual max backtransformation error   0.2705E-01


 Constraint values: difference between the actual and the fixed coord values, a.u.
 =================================================================================

 Index  Constr. value     Atom indices
 ------------- NON-BLOCK constraints -------------------
     1    0.00000E+00     1    11
     2    0.00000E+00     1     6
     3    0.00000E+00     1     2
     4    0.00000E+00     1    14
 -------------------------------------------------------
 
----------------------------------------------------------------------
Geometry Convergence after Step   3       (Hartree/Angstrom,Angstrom)
----------------------------------------------------------------------
current energy                               -4.27601684 Hartree
energy change                      -0.00051198     0.00001700    F
constrained gradient max            0.00713951     0.00010000    F
constrained gradient rms            0.00218650     0.00006667    F
gradient max                        0.01142159
gradient rms                        0.00355429
cart. step max                      0.02815886     0.00100000    F
cart. step rms                      0.01218177     0.00066667    F
 
 
--------
Geometry
--------
Formula: H9ClO6Pa
Atoms
  Index Symbol   x (angstrom)   y (angstrom)   z (angstrom)
      1     Pa    -0.32487109    -0.27330767     0.48224227       adf.R=2.200
      2      O     1.61801028     1.13070653     0.98865724       adf.R=1.517
      3      O    -0.49857138     0.65512269    -1.32202574       adf.R=1.517
      4     Cl    -1.23982504     1.83194732     1.89643532       adf.R=1.725
      5      H    -0.76044042     1.49741072    -1.70849664       adf.R=1.350
      6      O    -1.07769479    -2.28072205    -0.70352497       adf.R=1.517
      7      H    -1.17690023    -2.33245671    -1.65925439       adf.R=1.350
      8      H    -0.89766425    -3.17314469    -0.39255445       adf.R=1.350
      9      H     1.57909350     1.72988729     1.74093654       adf.R=1.350
     10      O    -0.06238122    -1.36162165     1.91655471       adf.R=1.517
     11      O     1.72964476    -1.25399925    -0.42313533       adf.R=1.517
     12      H     2.00185289    -1.18646077    -1.34351951       adf.R=1.350
     13      H     2.11473168    -2.06475884    -0.07664570       adf.R=1.350
     14      O    -2.76304521    -0.49539329     0.57435598       adf.R=1.517
     15      H    -3.16990471    -1.35823396     0.44583283       adf.R=1.350
     16      H    -3.24664336    -0.04799267     1.27607261       adf.R=1.350
     17      H     2.49969857     0.74516209     0.96914203       adf.R=1.350
 
Total System Charge             1.00000
Bonding info available!
 
 *** GO1_GOStep4 ***

 SOLVATION
-------------------------------------------

  The Delley construction of COSMO surface surface is calculated

       Division Level for Surface Triangles (NDIV)                  3
       Final Division Level for Triangles (NFDIV)                   1
       Radius of the Solvent (RSOL)                           1.93000 angstr
  Dielectric Constant (EPSL)                                 78.39000

       COSMO equation is solved iteratively-               conjugate-gradient

       Maximun of Iterations for Charges (NCIX)                  1000
       Criterion for Charge convergence (CCNV)                1.0E-08

  COSMO charges included variationally in SCF

       COSMO included at every SCF cycle

  Geometry-dependent empirical factor                         0.00000

  C-Matrix calculated in cspmtx

  In cspmtx, C-Matrix calculated using fitted potential

-------------------------------------------



 -------------------------------------------
  COSMO surface
  Area             =          632.790
  Volume           =         1152.877
  Number of Points =         1530
 -------------------------------------------
 
 RIHartreeFock Dependency: number of modified vectors:          10
 cosmo_calcen: 0.5 (esolb+esolc) (Hartrees) =   -0.131223

 Solvation energy (screening term,uncorrected) =    -82.343804 kcal/mol

 Solvation energy (dispersion and cavitation terms) =      1.183268 kcal/mol
 Solvation Energy Contributions (Hartrees)
          esola   esolb+esolc
     0.13122319   -0.26244638
 esol last cycle   -0.13122319
  
 Hartree-Fock exchange energy:   -546.428191869749     
 cosmo_calcen: 0.5 (esolb+esolc) (Hartrees) =   -0.131223

 Solvation energy (screening term,uncorrected) =    -82.343805 kcal/mol

 Solvation energy (dispersion and cavitation terms) =      1.183268 kcal/mol
 Solvation Energy Contributions (Hartrees)
          esola   esolb+esolc
     0.13122319   -0.26244638
 esol last cycle   -0.13122319

 Energy gradients wrt nuclear displacements
 ==========================================

     Atom      Cartesian (a.u./angstrom)
                 X         Y         Z
 ----------------------------------------
     1 Pa    0.002969 -0.010183  0.002141
     2 O    -0.007934 -0.004285 -0.001803
     3 O     0.000059  0.000010 -0.001326
     4 Cl    0.000592 -0.001314 -0.000800
     5 H     0.000654 -0.002441  0.003118
     6 O     0.002492  0.004881  0.003071
     7 H     0.001230  0.000903  0.003253
     8 H     0.000331  0.003413 -0.001063
     9 H    -0.000301 -0.002672 -0.001667
    10 O    -0.001372  0.005621 -0.007678
    11 O    -0.005370  0.001974  0.002127
    12 H    -0.001889 -0.000383  0.002997
    13 H    -0.002251  0.002371 -0.001125
    14 O     0.009523  0.001957 -0.000168
    15 H     0.002644  0.002094  0.000578
    16 H     0.002275 -0.001763 -0.001535
    17 H    -0.003653 -0.000184 -0.000121
 ----------------------------------------
 Mulliken charges used for AMS results%charges...

 dE(predicted):    -0.24734E-03, dE(actual):    -0.43749E-03, Trust radius:    0.400000, all in a.u.
 Residual max backtransformation error   0.3675E-01


 Constraint values: difference between the actual and the fixed coord values, a.u.
 =================================================================================

 Index  Constr. value     Atom indices
 ------------- NON-BLOCK constraints -------------------
     1    0.00000E+00     1    11
     2    0.00000E+00     1     6
     3    0.00000E+00     1     2
     4    0.00000E+00     1    14
 -------------------------------------------------------
 
----------------------------------------------------------------------
Geometry Convergence after Step   4       (Hartree/Angstrom,Angstrom)
----------------------------------------------------------------------
current energy                               -4.27645433 Hartree
energy change                      -0.00043749     0.00001700    F
constrained gradient max            0.00767988     0.00010000    F
constrained gradient rms            0.00227800     0.00006667    F
gradient max                        0.01018325
gradient rms                        0.00337857
cart. step max                      0.04410875     0.00100000    F
cart. step rms                      0.01587489     0.00066667    F
 
 
--------
Geometry
--------
Formula: H9ClO6Pa
Atoms
  Index Symbol   x (angstrom)   y (angstrom)   z (angstrom)
      1     Pa    -0.31973273    -0.28137868     0.47208949       adf.R=2.200
      2      O     1.61673678     1.11794309     1.01475365       adf.R=1.517
      3      O    -0.49539998     0.65453539    -1.32062359       adf.R=1.517
      4     Cl    -1.23589104     1.81718977     1.89314093       adf.R=1.725
      5      H    -0.75330898     1.48924401    -1.72824763       adf.R=1.350
      6      O    -1.07988758    -2.29074743    -0.70566339       adf.R=1.517
      7      H    -1.21534355    -2.35318163    -1.65692777       adf.R=1.350
      8      H    -0.94177300    -3.18666278    -0.38136379       adf.R=1.350
      9      H     1.57016352     1.74529840     1.74365911       adf.R=1.350
     10      O    -0.05674247    -1.37357640     1.90441938       adf.R=1.517
     11      O     1.73633705    -1.25334198    -0.43915383       adf.R=1.517
     12      H     2.03387744    -1.16404117    -1.35046244       adf.R=1.350
     13      H     2.15443231    -2.04383473    -0.08244820       adf.R=1.350
     14      O    -2.75693483    -0.50078561     0.59211661       adf.R=1.517
     15      H    -3.19222514    -1.34710558     0.44509052       adf.R=1.350
     16      H    -3.25085906    -0.03043159     1.27182192       adf.R=1.350
     17      H     2.51164124     0.76302199     0.98887181       adf.R=1.350
 
Total System Charge             1.00000
Bonding info available!
 
 *** GO1_GOStep5 ***

 SOLVATION
-------------------------------------------

  The Delley construction of COSMO surface surface is calculated

       Division Level for Surface Triangles (NDIV)                  3
       Final Division Level for Triangles (NFDIV)                   1
       Radius of the Solvent (RSOL)                           1.93000 angstr
  Dielectric Constant (EPSL)                                 78.39000

       COSMO equation is solved iteratively-               conjugate-gradient

       Maximun of Iterations for Charges (NCIX)                  1000
       Criterion for Charge convergence (CCNV)                1.0E-08

  COSMO charges included variationally in SCF

       COSMO included at every SCF cycle

  Geometry-dependent empirical factor                         0.00000

  C-Matrix calculated in cspmtx

  In cspmtx, C-Matrix calculated using fitted potential

-------------------------------------------



 -------------------------------------------
  COSMO surface
  Area             =          631.380
  Volume           =         1148.115
  Number of Points =         1523
 -------------------------------------------
 
 RIHartreeFock Dependency: number of modified vectors:          10
 cosmo_calcen: 0.5 (esolb+esolc) (Hartrees) =   -0.130696

 Solvation energy (screening term,uncorrected) =    -82.012730 kcal/mol

 Solvation energy (dispersion and cavitation terms) =      1.180632 kcal/mol
 Solvation Energy Contributions (Hartrees)
          esola   esolb+esolc
     0.13069559   -0.26139118
 esol last cycle   -0.13069559
  
 Hartree-Fock exchange energy:   -546.426445886289     
 cosmo_calcen: 0.5 (esolb+esolc) (Hartrees) =   -0.130696

 Solvation energy (screening term,uncorrected) =    -82.012740 kcal/mol

 Solvation energy (dispersion and cavitation terms) =      1.180632 kcal/mol
 Solvation Energy Contributions (Hartrees)
          esola   esolb+esolc
     0.13069561   -0.26139121
 esol last cycle   -0.13069561

 Energy gradients wrt nuclear displacements
 ==========================================

     Atom      Cartesian (a.u./angstrom)
                 X         Y         Z
 ----------------------------------------
     1 Pa    0.001869 -0.005944 -0.002164
     2 O    -0.009455 -0.004751 -0.001540
     3 O     0.000943 -0.003482  0.003093
     4 Cl    0.000934 -0.002338 -0.001301
     5 H     0.000104 -0.000640  0.002131
     6 O     0.002864  0.005821  0.003814
     7 H     0.000754  0.000804  0.001626
     8 H     0.000288  0.001691 -0.000422
     9 H    -0.000190 -0.001567 -0.000978
    10 O    -0.001392  0.005327 -0.007023
    11 O    -0.006327  0.002350  0.002505
    12 H    -0.001289  0.000015  0.001555
    13 H    -0.001186  0.001064 -0.000471
    14 O     0.010931  0.002280  0.000135
    15 H     0.001653  0.000903  0.000099
    16 H     0.001304 -0.000965 -0.000756
    17 H    -0.001805 -0.000569 -0.000304
 ----------------------------------------
 Mulliken charges used for AMS results%charges...

 dE(predicted):    -0.21969E-03, dE(actual):    -0.38574E-03, Trust radius:    0.400000, all in a.u.
 Residual max backtransformation error   0.3357E-01


 Constraint values: difference between the actual and the fixed coord values, a.u.
 =================================================================================

 Index  Constr. value     Atom indices
 ------------- NON-BLOCK constraints -------------------
     1    0.00000E+00     1    11
     2    0.88818E-15     1     6
     3    0.00000E+00     1     2
     4    0.00000E+00     1    14
 -------------------------------------------------------
 
----------------------------------------------------------------------
Geometry Convergence after Step   5       (Hartree/Angstrom,Angstrom)
----------------------------------------------------------------------
current energy                               -4.27684008 Hartree
energy change                      -0.00038574     0.00001700    F
constrained gradient max            0.00702061     0.00010000    F
constrained gradient rms            0.00167686     0.00006667    F
gradient max                        0.01093295
gradient rms                        0.00323560
cart. step max                      0.04726403     0.00100000    F
cart. step rms                      0.01537883     0.00066667    F
 
 
--------
Geometry
--------
Formula: H9ClO6Pa
Atoms
  Index Symbol   x (angstrom)   y (angstrom)   z (angstrom)
      1     Pa    -0.31522627    -0.28923492     0.46502252       adf.R=2.200
      2      O     1.61885647     1.10234516     1.03539860       adf.R=1.517
      3      O    -0.49432392     0.65769880    -1.31994373       adf.R=1.517
      4     Cl    -1.23255994     1.80618984     1.89171308       adf.R=1.725
      5      H    -0.74773616     1.48293418    -1.75092736       adf.R=1.350
      6      O    -1.08675742    -2.29757620    -0.70707175       adf.R=1.517
      7      H    -1.25706563    -2.36872805    -1.65294796       adf.R=1.350
      8      H    -0.98903702    -3.19530232    -0.37088925       adf.R=1.350
      9      H     1.56681233     1.75663942     1.74078749       adf.R=1.350
     10      O    -0.05038823    -1.38775013     1.89730035       adf.R=1.517
     11      O     1.74488793    -1.24899270    -0.45001546       adf.R=1.517
     12      H     2.06704262    -1.13924267    -1.35163579       adf.R=1.350
     13      H     2.19349919    -2.01852541    -0.08281126       adf.R=1.350
     14      O    -2.75105139    -0.51138287     0.60611198       adf.R=1.517
     15      H    -3.21066406    -1.34256521     0.44369769       adf.R=1.350
     16      H    -3.25586880    -0.01945427     1.26304827       adf.R=1.350
     17      H     2.52467026     0.77509245     1.00423538       adf.R=1.350
 
Total System Charge             1.00000
Bonding info available!
 
 *** GO1_GOStep6 ***

 SOLVATION
-------------------------------------------

  The Delley construction of COSMO surface surface is calculated

       Division Level for Surface Triangles (NDIV)                  3
       Final Division Level for Triangles (NFDIV)                   1
       Radius of the Solvent (RSOL)                           1.93000 angstr
  Dielectric Constant (EPSL)                                 78.39000

       COSMO equation is solved iteratively-               conjugate-gradient

       Maximun of Iterations for Charges (NCIX)                  1000
       Criterion for Charge convergence (CCNV)                1.0E-08

  COSMO charges included variationally in SCF

       COSMO included at every SCF cycle

  Geometry-dependent empirical factor                         0.00000

  C-Matrix calculated in cspmtx

  In cspmtx, C-Matrix calculated using fitted potential

-------------------------------------------



 -------------------------------------------
  COSMO surface
  Area             =          635.367
  Volume           =         1151.745
  Number of Points =         1541
 -------------------------------------------
 
 RIHartreeFock Dependency: number of modified vectors:          10
 cosmo_calcen: 0.5 (esolb+esolc) (Hartrees) =   -0.130561

 Solvation energy (screening term,uncorrected) =    -81.928199 kcal/mol

 Solvation energy (dispersion and cavitation terms) =      1.188087 kcal/mol
 Solvation Energy Contributions (Hartrees)
          esola   esolb+esolc
     0.13056088   -0.26112176
 esol last cycle   -0.13056088
  
 Hartree-Fock exchange energy:   -546.418272131859     
 cosmo_calcen: 0.5 (esolb+esolc) (Hartrees) =   -0.130561

 Solvation energy (screening term,uncorrected) =    -81.928202 kcal/mol

 Solvation energy (dispersion and cavitation terms) =      1.188087 kcal/mol
 Solvation Energy Contributions (Hartrees)
          esola   esolb+esolc
     0.13056089   -0.26112177
 esol last cycle   -0.13056089

 Energy gradients wrt nuclear displacements
 ==========================================

     Atom      Cartesian (a.u./angstrom)
                 X         Y         Z
 ----------------------------------------
     1 Pa    0.000820 -0.001876 -0.006748
     2 O    -0.010843 -0.006056 -0.002499
     3 O     0.001299 -0.004645  0.003938
     4 Cl    0.000839 -0.002271 -0.001173
     5 H    -0.000398  0.001067  0.000895
     6 O     0.002938  0.007516  0.005110
     7 H     0.000201  0.000209 -0.000171
     8 H     0.000085 -0.000139 -0.000137
     9 H     0.000257 -0.000288  0.000188
    10 O    -0.000628  0.001940 -0.002353
    11 O    -0.007419  0.003223  0.003746
    12 H    -0.000257  0.000009 -0.000253
    13 H    -0.000062  0.000017 -0.000092
    14 O     0.012905  0.002370 -0.000400
    15 H     0.000292 -0.000272 -0.000071
    16 H     0.000019 -0.000341  0.000160
    17 H    -0.000049 -0.000464 -0.000141
 ----------------------------------------
 Mulliken charges used for AMS results%charges...

 dE(predicted):    -0.14712E-03, dE(actual):    -0.13846E-03, Trust radius:    0.400000, all in a.u.
 Residual max backtransformation error   0.2089E-01


 Constraint values: difference between the actual and the fixed coord values, a.u.
 =================================================================================

 Index  Constr. value     Atom indices
 ------------- NON-BLOCK constraints -------------------
     1    0.88818E-15     1    11
     2    0.00000E+00     1     6
     3    0.00000E+00     1     2
     4    0.00000E+00     1    14
 -------------------------------------------------------
 
----------------------------------------------------------------------
Geometry Convergence after Step   6       (Hartree/Angstrom,Angstrom)
----------------------------------------------------------------------
current energy                               -4.27697853 Hartree
energy change                      -0.00013846     0.00001700    F
constrained gradient max            0.00465222     0.00010000    F
constrained gradient rms            0.00121032     0.00006667    F
gradient max                        0.01290645
gradient rms                        0.00346430
cart. step max                      0.02797405     0.00100000    F
cart. step rms                      0.00926722     0.00066667    F
 
 
--------
Geometry
--------
Formula: H9ClO6Pa
Atoms
  Index Symbol   x (angstrom)   y (angstrom)   z (angstrom)
      1     Pa    -0.31287969    -0.29457891     0.46368379       adf.R=2.200
      2      O     1.62208532     1.09097988     1.04560924       adf.R=1.517
      3      O    -0.49541471     0.66201139    -1.31831930       adf.R=1.517
      4     Cl    -1.23050840     1.80169148     1.89304920       adf.R=1.725
      5      H    -0.74535254     1.47905542    -1.76616017       adf.R=1.350
      6      O    -1.09133662    -2.30064361    -0.70772956       adf.R=1.517
      7      H    -1.28262339    -2.37558620    -1.64946754       adf.R=1.350
      8      H    -1.01701107    -3.19826236    -0.36473382       adf.R=1.350
      9      H     1.56672839     1.76272516     1.73442602       adf.R=1.350
     10      O    -0.04585585    -1.39810147     1.89515247       adf.R=1.517
     11      O     1.74986375    -1.24552356    -0.45462649       adf.R=1.517
     12      H     2.08689324    -1.12192833    -1.34915673       adf.R=1.350
     13      H     2.21539592    -2.00250167    -0.08164648       adf.R=1.350
     14      O    -2.74788780    -0.52026982     0.61301267       adf.R=1.517
     15      H    -3.22099275    -1.34219927     0.44200172       adf.R=1.350
     16      H    -3.25949434    -0.01433458     1.25413453       adf.R=1.350
     17      H     2.53348050     0.77961155     1.01184324       adf.R=1.350
 
Total System Charge             1.00000
Bonding info available!
 
 *** GO1_GOStep7 ***

 SOLVATION
-------------------------------------------

  The Delley construction of COSMO surface surface is calculated

       Division Level for Surface Triangles (NDIV)                  3
       Final Division Level for Triangles (NFDIV)                   1
       Radius of the Solvent (RSOL)                           1.93000 angstr
  Dielectric Constant (EPSL)                                 78.39000

       COSMO equation is solved iteratively-               conjugate-gradient

       Maximun of Iterations for Charges (NCIX)                  1000
       Criterion for Charge convergence (CCNV)                1.0E-08

  COSMO charges included variationally in SCF

       COSMO included at every SCF cycle

  Geometry-dependent empirical factor                         0.00000

  C-Matrix calculated in cspmtx

  In cspmtx, C-Matrix calculated using fitted potential

-------------------------------------------



 -------------------------------------------
  COSMO surface
  Area             =          635.199
  Volume           =         1149.280
  Number of Points =         1536
 -------------------------------------------
 
 RIHartreeFock Dependency: number of modified vectors:          10
 cosmo_calcen: 0.5 (esolb+esolc) (Hartrees) =   -0.130563

 Solvation energy (screening term,uncorrected) =    -81.929385 kcal/mol

 Solvation energy (dispersion and cavitation terms) =      1.187773 kcal/mol
 Solvation Energy Contributions (Hartrees)
          esola   esolb+esolc
     0.13056277   -0.26112554
 esol last cycle   -0.13056277
  
 Hartree-Fock exchange energy:   -546.412865375207     
 cosmo_calcen: 0.5 (esolb+esolc) (Hartrees) =   -0.130563

 Solvation energy (screening term,uncorrected) =    -81.929386 kcal/mol

 Solvation energy (dispersion and cavitation terms) =      1.187773 kcal/mol
 Solvation Energy Contributions (Hartrees)
          esola   esolb+esolc
     0.13056277   -0.26112555
 esol last cycle   -0.13056277

 Energy gradients wrt nuclear displacements
 ==========================================

     Atom      Cartesian (a.u./angstrom)
                 X         Y         Z
 ----------------------------------------
     1 Pa    0.000564 -0.001047 -0.007592
     2 O    -0.010959 -0.006848 -0.003001
     3 O     0.000718 -0.002572  0.001823
     4 Cl    0.000558 -0.001603 -0.000800
     5 H    -0.000251  0.000729  0.000609
     6 O     0.002909  0.008043  0.005148
     7 H    -0.000049 -0.000201 -0.000376
     8 H    -0.000126 -0.000592 -0.000180
     9 H     0.000495  0.000135  0.000515
    10 O    -0.000034 -0.000450  0.000916
    11 O    -0.007722  0.003711  0.003689
    12 H     0.000188 -0.000094 -0.000406
    13 H     0.000466 -0.000327 -0.000032
    14 O     0.013469  0.001922 -0.000818
    15 H    -0.000275 -0.000444  0.000015
    16 H    -0.000451 -0.000188  0.000419
    17 H     0.000498 -0.000172  0.000070
 ----------------------------------------
 Mulliken charges used for AMS results%charges...

 dE(predicted):    -0.54331E-04, dE(actual):    -0.22665E-03, Trust radius:    0.400000, all in a.u.
 Residual max backtransformation error   0.9694E-02


 Constraint values: difference between the actual and the fixed coord values, a.u.
 =================================================================================

 Index  Constr. value     Atom indices
 ------------- NON-BLOCK constraints -------------------
     1    0.00000E+00     1    11
     2   -0.88818E-15     1     6
     3    0.00000E+00     1     2
     4   -0.88818E-15     1    14
 -------------------------------------------------------
 
----------------------------------------------------------------------
Geometry Convergence after Step   7       (Hartree/Angstrom,Angstrom)
----------------------------------------------------------------------
current energy                               -4.27720519 Hartree
energy change                      -0.00022665     0.00001700    F
constrained gradient max            0.00396754     0.00010000    F
constrained gradient rms            0.00095127     0.00006667    F
gradient max                        0.01346861
gradient rms                        0.00350376
cart. step max                      0.00939231     0.00100000    F
cart. step rms                      0.00381087     0.00066667    F
 
 
--------
Geometry
--------
Formula: H9ClO6Pa
Atoms
  Index Symbol   x (angstrom)   y (angstrom)   z (angstrom)
      1     Pa    -0.31209748    -0.29762058     0.46581248       adf.R=2.200
      2      O     1.62428174     1.08564598     1.04848661       adf.R=1.517
      3      O    -0.49709199     0.66503715    -1.31552886       adf.R=1.517
      4     Cl    -1.22930411     1.80072079     1.89647003       adf.R=1.725
      5      H    -0.74524176     1.47708827    -1.77310298       adf.R=1.350
      6      O    -1.09209645    -2.30149993    -0.70831236       adf.R=1.517
      7      H    -1.29201571    -2.37655481    -1.64823940       adf.R=1.350
      8      H    -1.02610168    -3.19881547    -0.36302956       adf.R=1.350
      9      H     1.56673475     1.76637838     1.72812402       adf.R=1.350
     10      O    -0.04316011    -1.40413395     1.89522185       adf.R=1.517
     11      O     1.75110458    -1.24485150    -0.45530143       adf.R=1.517
     12      H     2.09416096    -1.11442113    -1.34652435       adf.R=1.350
     13      H     2.22232005    -1.99729743    -0.08046309       adf.R=1.350
     14      O    -2.74694670    -0.52485875     0.61538562       adf.R=1.517
     15      H    -3.22566992    -1.34256288     0.44066426       adf.R=1.350
     16      H    -3.26157786    -0.01128584     1.24782376       adf.R=1.350
     17      H     2.53779166     0.78117678     1.01358619       adf.R=1.350
 
Total System Charge             1.00000
Bonding info available!
 
 *** GO1_GOStep8 ***

 SOLVATION
-------------------------------------------

  The Delley construction of COSMO surface surface is calculated

       Division Level for Surface Triangles (NDIV)                  3
       Final Division Level for Triangles (NFDIV)                   1
       Radius of the Solvent (RSOL)                           1.93000 angstr
  Dielectric Constant (EPSL)                                 78.39000

       COSMO equation is solved iteratively-               conjugate-gradient

       Maximun of Iterations for Charges (NCIX)                  1000
       Criterion for Charge convergence (CCNV)                1.0E-08

  COSMO charges included variationally in SCF

       COSMO included at every SCF cycle

  Geometry-dependent empirical factor                         0.00000

  C-Matrix calculated in cspmtx

  In cspmtx, C-Matrix calculated using fitted potential

-------------------------------------------



 -------------------------------------------
  COSMO surface
  Area             =          636.857
  Volume           =         1150.858
  Number of Points =         1536
 -------------------------------------------
 
 RIHartreeFock Dependency: number of modified vectors:          10
 cosmo_calcen: 0.5 (esolb+esolc) (Hartrees) =   -0.130537

 Solvation energy (screening term,uncorrected) =    -81.913232 kcal/mol

 Solvation energy (dispersion and cavitation terms) =      1.190873 kcal/mol
 Solvation Energy Contributions (Hartrees)
          esola   esolb+esolc
     0.13053703   -0.26107406
 esol last cycle   -0.13053703
  
 Hartree-Fock exchange energy:   -546.410642495303     
 cosmo_calcen: 0.5 (esolb+esolc) (Hartrees) =   -0.130537

 Solvation energy (screening term,uncorrected) =    -81.913230 kcal/mol

 Solvation energy (dispersion and cavitation terms) =      1.190873 kcal/mol
 Solvation Energy Contributions (Hartrees)
          esola   esolb+esolc
     0.13053703   -0.26107406
 esol last cycle   -0.13053703

 Energy gradients wrt nuclear displacements
 ==========================================

     Atom      Cartesian (a.u./angstrom)
                 X         Y         Z
 ----------------------------------------
     1 Pa    0.000793 -0.002043 -0.006268
     2 O    -0.010421 -0.007020 -0.002975
     3 O     0.000359 -0.001116 -0.000037
     4 Cl    0.000309 -0.000983 -0.000425
     5 H    -0.000216  0.000692  0.000343
     6 O     0.002872  0.007749  0.005185
     7 H    -0.000135 -0.000248 -0.000413
     8 H    -0.000227 -0.000486 -0.000190
     9 H     0.000411  0.000110  0.000373
    10 O     0.000139 -0.001019  0.001630
    11 O    -0.007539  0.003614  0.003633
    12 H     0.000276 -0.000064 -0.000364
    13 H     0.000470 -0.000215 -0.000049
    14 O     0.013138  0.001463 -0.000852
    15 H    -0.000285 -0.000270  0.000002
    16 H    -0.000379 -0.000147  0.000300
    17 H     0.000436 -0.000018  0.000107
 ----------------------------------------
 Mulliken charges used for AMS results%charges...

 dE(predicted):    -0.17479E-04, dE(actual):    -0.45249E-04, Trust radius:    0.400000, all in a.u.
 Residual max backtransformation error   0.7115E-02


 Constraint values: difference between the actual and the fixed coord values, a.u.
 =================================================================================

 Index  Constr. value     Atom indices
 ------------- NON-BLOCK constraints -------------------
     1    0.00000E+00     1    11
     2    0.00000E+00     1     6
     3    0.00000E+00     1     2
     4    0.88818E-15     1    14
 -------------------------------------------------------
 
----------------------------------------------------------------------
Geometry Convergence after Step   8       (Hartree/Angstrom,Angstrom)
----------------------------------------------------------------------
current energy                               -4.27725043 Hartree
energy change                      -0.00004525     0.00001700    F
constrained gradient max            0.00262932     0.00010000    F
constrained gradient rms            0.00066129     0.00006667    F
gradient max                        0.01313764
gradient rms                        0.00335347
cart. step max                      0.00674090     0.00100000    F
cart. step rms                      0.00243372     0.00066667    F
 
 
--------
Geometry
--------
Formula: H9ClO6Pa
Atoms
  Index Symbol   x (angstrom)   y (angstrom)   z (angstrom)
      1     Pa    -0.31200909    -0.30009650     0.47007503       adf.R=2.200
      2      O     1.62555621     1.08331230     1.04845277       adf.R=1.517
      3      O    -0.49915245     0.66685646    -1.31113446       adf.R=1.517
      4     Cl    -1.22836289     1.80164726     1.90067180       adf.R=1.725
      5      H    -0.74601270     1.47436241    -1.77683362       adf.R=1.350
      6      O    -1.09007420    -2.30096446    -0.71045116       adf.R=1.517
      7      H    -1.29339825    -2.37407874    -1.64961988       adf.R=1.350
      8      H    -1.02545130    -3.19830417    -0.36539383       adf.R=1.350
      9      H     1.56587975     1.77039768     1.72138311       adf.R=1.350
     10      O    -0.04102056    -1.40888272     1.89660153       adf.R=1.517
     11      O     1.75014478    -1.24653115    -0.45419921       adf.R=1.517
     12      H     2.09569850    -1.11233018    -1.34371106       adf.R=1.350
     13      H     2.22206486    -1.99821307    -0.07913174       adf.R=1.350
     14      O    -2.74701507    -0.52734284     0.61706129       adf.R=1.517
     15      H    -3.22878224    -1.34277941     0.44116670       adf.R=1.350
     16      H    -3.26308322    -0.00772051     1.24321486       adf.R=1.350
     17      H     2.54010785     0.78281273     1.01292065       adf.R=1.350
 
Total System Charge             1.00000
Bonding info available!
 
 *** GO1_GOStep9 ***

 SOLVATION
-------------------------------------------

  The Delley construction of COSMO surface surface is calculated

       Division Level for Surface Triangles (NDIV)                  3
       Final Division Level for Triangles (NFDIV)                   1
       Radius of the Solvent (RSOL)                           1.93000 angstr
  Dielectric Constant (EPSL)                                 78.39000

       COSMO equation is solved iteratively-               conjugate-gradient

       Maximun of Iterations for Charges (NCIX)                  1000
       Criterion for Charge convergence (CCNV)                1.0E-08

  COSMO charges included variationally in SCF

       COSMO included at every SCF cycle

  Geometry-dependent empirical factor                         0.00000

  C-Matrix calculated in cspmtx

  In cspmtx, C-Matrix calculated using fitted potential

-------------------------------------------



 -------------------------------------------
  COSMO surface
  Area             =          637.879
  Volume           =         1152.338
  Number of Points =         1537
 -------------------------------------------
 
 RIHartreeFock Dependency: number of modified vectors:          10
 cosmo_calcen: 0.5 (esolb+esolc) (Hartrees) =   -0.130474

 Solvation energy (screening term,uncorrected) =    -81.873561 kcal/mol

 Solvation energy (dispersion and cavitation terms) =      1.192785 kcal/mol
 Solvation Energy Contributions (Hartrees)
          esola   esolb+esolc
     0.13047381   -0.26094762
 esol last cycle   -0.13047381
  
 Hartree-Fock exchange energy:   -546.410025578544     
 cosmo_calcen: 0.5 (esolb+esolc) (Hartrees) =   -0.130474

 Solvation energy (screening term,uncorrected) =    -81.873567 kcal/mol

 Solvation energy (dispersion and cavitation terms) =      1.192785 kcal/mol
 Solvation Energy Contributions (Hartrees)
          esola   esolb+esolc
     0.13047382   -0.26094764
 esol last cycle   -0.13047382

 Energy gradients wrt nuclear displacements
 ==========================================

     Atom      Cartesian (a.u./angstrom)
                 X         Y         Z
 ----------------------------------------
     1 Pa    0.001140 -0.003985 -0.003779
     2 O    -0.009647 -0.007047 -0.002844
     3 O    -0.000023  0.000308 -0.001693
     4 Cl    0.000116 -0.000376 -0.000179
     5 H    -0.000111  0.000412  0.000274
     6 O     0.002824  0.007250  0.004657
     7 H    -0.000110 -0.000112 -0.000187
     8 H    -0.000181 -0.000179 -0.000058
     9 H     0.000166  0.000087  0.000250
    10 O     0.000136 -0.000679  0.001108
    11 O    -0.007163  0.003315  0.003317
    12 H     0.000157  0.000002 -0.000133
    13 H     0.000275 -0.000001 -0.000019
    14 O     0.012523  0.001091 -0.000845
    15 H    -0.000115 -0.000063 -0.000074
    16 H    -0.000135 -0.000070  0.000212
    17 H     0.000146  0.000044 -0.000007
 ----------------------------------------
 Mulliken charges used for AMS results%charges...

 dE(predicted):    -0.11938E-04, dE(actual):    -0.30672E-04, Trust radius:    0.400000, all in a.u.
 Residual max backtransformation error   0.4458E-02


 Constraint values: difference between the actual and the fixed coord values, a.u.
 =================================================================================

 Index  Constr. value     Atom indices
 ------------- NON-BLOCK constraints -------------------
     1    0.00000E+00     1    11
     2    0.00000E+00     1     6
     3    0.00000E+00     1     2
     4    0.00000E+00     1    14
 -------------------------------------------------------
 
----------------------------------------------------------------------
Geometry Convergence after Step   9       (Hartree/Angstrom,Angstrom)
----------------------------------------------------------------------
current energy                               -4.27728111 Hartree
energy change                      -0.00003067     0.00001700    F
constrained gradient max            0.00170152     0.00010000    F
constrained gradient rms            0.00033775     0.00006667    F
gradient max                        0.01252281
gradient rms                        0.00313766
cart. step max                      0.00570378     0.00100000    F
cart. step rms                      0.00251089     0.00066667    F
 
 
--------
Geometry
--------
Formula: H9ClO6Pa
Atoms
  Index Symbol   x (angstrom)   y (angstrom)   z (angstrom)
      1     Pa    -0.31198351    -0.30193813     0.47393524       adf.R=2.200
      2      O     1.62561562     1.08329671     1.04781161       adf.R=1.517
      3      O    -0.50038238     0.66697608    -1.30643478       adf.R=1.517
      4     Cl    -1.22761408     1.80212907     1.90492342       adf.R=1.725
      5      H    -0.74626107     1.47064976    -1.77880266       adf.R=1.350
      6      O    -1.08711307    -2.30003815    -0.71319174       adf.R=1.517
      7      H    -1.29146933    -2.37077907    -1.65214156       adf.R=1.350
      8      H    -1.02109712    -3.19772075    -0.36966941       adf.R=1.350
      9      H     1.56388462     1.77495482     1.71567934       adf.R=1.350
     10      O    -0.03940765    -1.41239222     1.89776410       adf.R=1.517
     11      O     1.74847665    -1.24929902    -0.45316307       adf.R=1.517
     12      H     2.09486535    -1.11321149    -1.34189321       adf.R=1.350
     13      H     2.21891714    -2.00207435    -0.07879098       adf.R=1.350
     14      O    -2.74722065    -0.52806099     0.61880927       adf.R=1.517
     15      H    -3.23089753    -1.34235187     0.44364740       adf.R=1.350
     16      H    -3.26408656    -0.00341064     1.23993863       adf.R=1.350
     17      H     2.54086356     0.78541535     1.01265120       adf.R=1.350
 
Total System Charge             1.00000
Bonding info available!
 
 *** GO1_GOStep10 ***

 SOLVATION
-------------------------------------------

  The Delley construction of COSMO surface surface is calculated

       Division Level for Surface Triangles (NDIV)                  3
       Final Division Level for Triangles (NFDIV)                   1
       Radius of the Solvent (RSOL)                           1.93000 angstr
  Dielectric Constant (EPSL)                                 78.39000

       COSMO equation is solved iteratively-               conjugate-gradient

       Maximun of Iterations for Charges (NCIX)                  1000
       Criterion for Charge convergence (CCNV)                1.0E-08

  COSMO charges included variationally in SCF

       COSMO included at every SCF cycle

  Geometry-dependent empirical factor                         0.00000

  C-Matrix calculated in cspmtx

  In cspmtx, C-Matrix calculated using fitted potential

-------------------------------------------



 -------------------------------------------
  COSMO surface
  Area             =          637.305
  Volume           =         1151.231
  Number of Points =         1537
 -------------------------------------------
 
 RIHartreeFock Dependency: number of modified vectors:          10
 cosmo_calcen: 0.5 (esolb+esolc) (Hartrees) =   -0.130421

 Solvation energy (screening term,uncorrected) =    -81.840219 kcal/mol

 Solvation energy (dispersion and cavitation terms) =      1.191712 kcal/mol
 Solvation Energy Contributions (Hartrees)
          esola   esolb+esolc
     0.13042068   -0.26084135
 esol last cycle   -0.13042068
  
 Hartree-Fock exchange energy:   -546.410689252653     
 cosmo_calcen: 0.5 (esolb+esolc) (Hartrees) =   -0.130421

 Solvation energy (screening term,uncorrected) =    -81.840229 kcal/mol

 Solvation energy (dispersion and cavitation terms) =      1.191712 kcal/mol
 Solvation Energy Contributions (Hartrees)
          esola   esolb+esolc
     0.13042069   -0.26084139
 esol last cycle   -0.13042069

 Energy gradients wrt nuclear displacements
 ==========================================

     Atom      Cartesian (a.u./angstrom)
                 X         Y         Z
 ----------------------------------------
     1 Pa    0.001380 -0.005359 -0.002040
     2 O    -0.009176 -0.006870 -0.002624
     3 O    -0.000202  0.000898 -0.002198
     4 Cl    0.000032 -0.000040 -0.000106
     5 H    -0.000021  0.000153  0.000303
     6 O     0.002873  0.006863  0.004147
     7 H    -0.000069  0.000007  0.000043
     8 H    -0.000118  0.000087  0.000049
     9 H     0.000010 -0.000031  0.000098
    10 O     0.000028  0.000006  0.000141
    11 O    -0.006904  0.003003  0.003005
    12 H     0.000027  0.000067  0.000071
    13 H     0.000081  0.000158  0.000013
    14 O     0.012049  0.000950 -0.000748
    15 H     0.000085  0.000089 -0.000103
    16 H     0.000033 -0.000034  0.000076
    17 H    -0.000107  0.000052 -0.000128
 ----------------------------------------
 Mulliken charges used for AMS results%charges...

 dE(predicted):    -0.66117E-05, dE(actual):    -0.24447E-04, Trust radius:    0.400000, all in a.u.
 Residual max backtransformation error   0.3157E-02


 Constraint values: difference between the actual and the fixed coord values, a.u.
 =================================================================================

 Index  Constr. value     Atom indices
 ------------- NON-BLOCK constraints -------------------
     1    0.00000E+00     1    11
     2    0.00000E+00     1     6
     3    0.00000E+00     1     2
     4   -0.88818E-15     1    14
 -------------------------------------------------------
 
----------------------------------------------------------------------
Geometry Convergence after Step  10       (Hartree/Angstrom,Angstrom)
----------------------------------------------------------------------
current energy                               -4.27730555 Hartree
energy change                      -0.00002445     0.00001700    F
constrained gradient max            0.00220432     0.00010000    F
constrained gradient rms            0.00041718     0.00006667    F
gradient max                        0.01204905
gradient rms                        0.00301608
cart. step max                      0.00638381     0.00100000    F
cart. step rms                      0.00300866     0.00066667    F
 
 
--------
Geometry
--------
Formula: H9ClO6Pa
Atoms
  Index Symbol   x (angstrom)   y (angstrom)   z (angstrom)
      1     Pa    -0.31177684    -0.30374425     0.47738251       adf.R=2.200
      2      O     1.62499970     1.08435974     1.04708766       adf.R=1.517
      3      O    -0.50092615     0.66596963    -1.30117799       adf.R=1.517
      4     Cl    -1.22685036     1.80131442     1.91027136       adf.R=1.725
      5      H    -0.74569573     1.46541538    -1.78102238       adf.R=1.350
      6      O    -1.08422313    -2.29887041    -0.71647609       adf.R=1.517
      7      H    -1.28929554    -2.36692571    -1.65535214       adf.R=1.350
      8      H    -1.01609994    -3.19723230    -0.37536163       adf.R=1.350
      9      H     1.56072896     1.78108742     1.70929553       adf.R=1.350
     10      O    -0.03775168    -1.41612210     1.89859966       adf.R=1.517
     11      O     1.74692448    -1.25249883    -0.45219459       adf.R=1.517
     12      H     2.09395421    -1.11508404    -1.34035402       adf.R=1.350
     13      H     2.21513025    -2.00710870    -0.07892774       adf.R=1.350
     14      O    -2.74724565    -0.52811887     0.62107565       adf.R=1.517
     15      H    -3.23315485    -1.34136962     0.44759875       adf.R=1.350
     16      H    -3.26473989     0.00190594     1.23698753       adf.R=1.350
     17      H     2.54111213     0.78916740     1.01364073       adf.R=1.350
 
Total System Charge             1.00000
Bonding info available!
 
 *** GO1_GOStep11 ***

 SOLVATION
-------------------------------------------

  The Delley construction of COSMO surface surface is calculated

       Division Level for Surface Triangles (NDIV)                  3
       Final Division Level for Triangles (NFDIV)                   1
       Radius of the Solvent (RSOL)                           1.93000 angstr
  Dielectric Constant (EPSL)                                 78.39000

       COSMO equation is solved iteratively-               conjugate-gradient

       Maximun of Iterations for Charges (NCIX)                  1000
       Criterion for Charge convergence (CCNV)                1.0E-08

  COSMO charges included variationally in SCF

       COSMO included at every SCF cycle

  Geometry-dependent empirical factor                         0.00000

  C-Matrix calculated in cspmtx

  In cspmtx, C-Matrix calculated using fitted potential

-------------------------------------------



 -------------------------------------------
  COSMO surface
  Area             =          638.936
  Volume           =         1153.888
  Number of Points =         1537
 -------------------------------------------
 
 RIHartreeFock Dependency: number of modified vectors:          10
 cosmo_calcen: 0.5 (esolb+esolc) (Hartrees) =   -0.130384

 Solvation energy (screening term,uncorrected) =    -81.817282 kcal/mol

 Solvation energy (dispersion and cavitation terms) =      1.194761 kcal/mol
 Solvation Energy Contributions (Hartrees)
          esola   esolb+esolc
     0.13038412   -0.26076825
 esol last cycle   -0.13038412
  
 Hartree-Fock exchange energy:   -546.411623738285     
 cosmo_calcen: 0.5 (esolb+esolc) (Hartrees) =   -0.130384

 Solvation energy (screening term,uncorrected) =    -81.817289 kcal/mol

 Solvation energy (dispersion and cavitation terms) =      1.194761 kcal/mol
 Solvation Energy Contributions (Hartrees)
          esola   esolb+esolc
     0.13038414   -0.26076827
 esol last cycle   -0.13038414

 Energy gradients wrt nuclear displacements
 ==========================================

     Atom      Cartesian (a.u./angstrom)
                 X         Y         Z
 ----------------------------------------
     1 Pa    0.001442 -0.005982 -0.001470
     2 O    -0.009003 -0.006675 -0.002452
     3 O    -0.000165  0.000785 -0.001788
     4 Cl   -0.000010  0.000140 -0.000028
     5 H     0.000025  0.000019  0.000323
     6 O     0.002939  0.006676  0.003782
     7 H    -0.000052  0.000084  0.000189
     8 H    -0.000050  0.000229  0.000117
     9 H    -0.000080 -0.000096 -0.000046
    10 O    -0.000070  0.000581 -0.000669
    11 O    -0.006778  0.002781  0.002760
    12 H    -0.000062  0.000105  0.000201
    13 H    -0.000053  0.000228  0.000043
    14 O     0.011820  0.000983 -0.000630
    15 H     0.000174  0.000139 -0.000115
    16 H     0.000116 -0.000025 -0.000032
    17 H    -0.000195  0.000029 -0.000185
 ----------------------------------------
 Mulliken charges used for AMS results%charges...

 dE(predicted):    -0.52665E-05, dE(actual):    -0.91524E-05, Trust radius:    0.400000, all in a.u.
 Residual max backtransformation error   0.9902E-03


 Constraint values: difference between the actual and the fixed coord values, a.u.
 =================================================================================

 Index  Constr. value     Atom indices
 ------------- NON-BLOCK constraints -------------------
     1    0.00000E+00     1    11
     2    0.00000E+00     1     6
     3    0.00000E+00     1     2
     4    0.00000E+00     1    14
 -------------------------------------------------------
 
----------------------------------------------------------------------
Geometry Convergence after Step  11       (Hartree/Angstrom,Angstrom)
----------------------------------------------------------------------
current energy                               -4.27731471 Hartree
energy change                      -0.00000915     0.00001700    T
constrained gradient max            0.00220576     0.00010000    F
constrained gradient rms            0.00048458     0.00006667    F
gradient max                        0.01182035
gradient rms                        0.00295944
cart. step max                      0.00503036     0.00100000    F
cart. step rms                      0.00239591     0.00066667    F
 
 
--------
Geometry
--------
Formula: H9ClO6Pa
Atoms
  Index Symbol   x (angstrom)   y (angstrom)   z (angstrom)
      1     Pa    -0.31150221    -0.30485433     0.47937878       adf.R=2.200
      2      O     1.62433756     1.08567845     1.04633820       adf.R=1.517
      3      O    -0.50098641     0.66457359    -1.29726272       adf.R=1.517
      4     Cl    -1.22645222     1.79981509     1.91472664       adf.R=1.725
      5      H    -0.74484601     1.46052349    -1.78333257       adf.R=1.350
      6      O    -1.08289573    -2.29772609    -0.71891759       adf.R=1.517
      7      H    -1.28795641    -2.36367892    -1.65794839       adf.R=1.350
      8      H    -1.01278576    -3.19687149    -0.38025610       adf.R=1.350
      9      H     1.55807062     1.78611778     1.70439245       adf.R=1.350
     10      O    -0.03656597    -1.41897225     1.89903855       adf.R=1.517
     11      O     1.74634116    -1.25441720    -0.45127206       adf.R=1.517
     12      H     2.09361002    -1.11663503    -1.33929010       adf.R=1.350
     13      H     2.21233090    -2.01100749    -0.07920842       adf.R=1.350
     14      O    -2.74710689    -0.52790753     0.62282597       adf.R=1.517
     15      H    -3.23465978    -1.34067305     0.45154013       adf.R=1.350
     16      H    -3.26491595     0.00609065     1.23500264       adf.R=1.350
     17      H     2.54107306     0.79208943     1.01531742       adf.R=1.350
 
Total System Charge             1.00000
Bonding info available!
 
 *** GO1_GOStep12 ***

 SOLVATION
-------------------------------------------

  The Delley construction of COSMO surface surface is calculated

       Division Level for Surface Triangles (NDIV)                  3
       Final Division Level for Triangles (NFDIV)                   1
       Radius of the Solvent (RSOL)                           1.93000 angstr
  Dielectric Constant (EPSL)                                 78.39000

       COSMO equation is solved iteratively-               conjugate-gradient

       Maximun of Iterations for Charges (NCIX)                  1000
       Criterion for Charge convergence (CCNV)                1.0E-08

  COSMO charges included variationally in SCF

       COSMO included at every SCF cycle

  Geometry-dependent empirical factor                         0.00000

  C-Matrix calculated in cspmtx

  In cspmtx, C-Matrix calculated using fitted potential

-------------------------------------------



 -------------------------------------------
  COSMO surface
  Area             =          639.103
  Volume           =         1153.951
  Number of Points =         1541
 -------------------------------------------
 
 RIHartreeFock Dependency: number of modified vectors:          10
 cosmo_calcen: 0.5 (esolb+esolc) (Hartrees) =   -0.130401

 Solvation energy (screening term,uncorrected) =    -81.827851 kcal/mol

 Solvation energy (dispersion and cavitation terms) =      1.195073 kcal/mol
 Solvation Energy Contributions (Hartrees)
          esola   esolb+esolc
     0.13040097   -0.26080193
 esol last cycle   -0.13040097
  
 Hartree-Fock exchange energy:   -546.412095539802     
 cosmo_calcen: 0.5 (esolb+esolc) (Hartrees) =   -0.130401

 Solvation energy (screening term,uncorrected) =    -81.827852 kcal/mol

 Solvation energy (dispersion and cavitation terms) =      1.195073 kcal/mol
 Solvation Energy Contributions (Hartrees)
          esola   esolb+esolc
     0.13040097   -0.26080194
 esol last cycle   -0.13040097

 Energy gradients wrt nuclear displacements
 ==========================================

     Atom      Cartesian (a.u./angstrom)
                 X         Y         Z
 ----------------------------------------
     1 Pa    0.001392 -0.005678 -0.002085
     2 O    -0.009080 -0.006593 -0.002420
     3 O    -0.000084  0.000294 -0.000922
     4 Cl   -0.000024  0.000175  0.000017
     5 H     0.000028  0.000011  0.000317
     6 O     0.003003  0.006735  0.003698
     7 H    -0.000050  0.000058  0.000164
     8 H    -0.000017  0.000214  0.000137
     9 H    -0.000084 -0.000096 -0.000100
    10 O    -0.000077  0.000655 -0.000814
    11 O    -0.006836  0.002754  0.002726
    12 H    -0.000050  0.000117  0.000166
    13 H    -0.000067  0.000176  0.000065
    14 O     0.011849  0.001106 -0.000585
    15 H     0.000136  0.000087 -0.000099
    16 H     0.000103 -0.000030 -0.000085
    17 H    -0.000141  0.000015 -0.000179
 ----------------------------------------
 Mulliken charges used for AMS results%charges...

 dE(predicted):    -0.33149E-05, dE(actual):    -0.12623E-04, Trust radius:    0.400000, all in a.u.
 Residual max backtransformation error   0.2968E-02


 Constraint values: difference between the actual and the fixed coord values, a.u.
 =================================================================================

 Index  Constr. value     Atom indices
 ------------- NON-BLOCK constraints -------------------
     1    0.00000E+00     1    11
     2   -0.88818E-15     1     6
     3    0.00000E+00     1     2
     4    0.88818E-15     1    14
 -------------------------------------------------------
 
----------------------------------------------------------------------
Geometry Convergence after Step  12       (Hartree/Angstrom,Angstrom)
----------------------------------------------------------------------
current energy                               -4.27732733 Hartree
energy change                      -0.00001262     0.00001700    T
constrained gradient max            0.00165806     0.00010000    F
constrained gradient rms            0.00036551     0.00006667    F
gradient max                        0.01184855
gradient rms                        0.00295233
cart. step max                      0.00439620     0.00100000    F
cart. step rms                      0.00181320     0.00066667    F
 
 
--------
Geometry
--------
Formula: H9ClO6Pa
Atoms
  Index Symbol   x (angstrom)   y (angstrom)   z (angstrom)
      1     Pa    -0.31121342    -0.30528745     0.48018903       adf.R=2.200
      2      O     1.62384866     1.08701476     1.04545823       adf.R=1.517
      3      O    -0.50054050     0.66312730    -1.29500119       adf.R=1.517
      4     Cl    -1.22640751     1.79810754     1.91812445       adf.R=1.725
      5      H    -0.74364435     1.45612729    -1.78637476       adf.R=1.350
      6      O    -1.08342309    -2.29647706    -0.72037590       adf.R=1.517
      7      H    -1.28777946    -2.36060569    -1.65975182       adf.R=1.350
      8      H    -1.01117911    -3.19649559    -0.38431620       adf.R=1.350
      9      H     1.55609433     1.78972112     1.70100673       adf.R=1.350
     10      O    -0.03587284    -1.42087336     1.89918478       adf.R=1.517
     11      O     1.74678205    -1.25481924    -0.45015713       adf.R=1.517
     12      H     2.09371188    -1.11760243    -1.33846517       adf.R=1.350
     13      H     2.21048841    -2.01353112    -0.07940996       adf.R=1.350
     14      O    -2.74684338    -0.52783399     0.62399360       adf.R=1.517
     15      H    -3.23517504    -1.34075407     0.45530359       adf.R=1.350
     16      H    -3.26460346     0.00860684     1.23413607       adf.R=1.350
     17      H     2.54084680     0.79372023     1.01752845       adf.R=1.350
 
Total System Charge             1.00000
Bonding info available!
 
 *** GO1_GOStep13 ***

 SOLVATION
-------------------------------------------

  The Delley construction of COSMO surface surface is calculated

       Division Level for Surface Triangles (NDIV)                  3
       Final Division Level for Triangles (NFDIV)                   1
       Radius of the Solvent (RSOL)                           1.93000 angstr
  Dielectric Constant (EPSL)                                 78.39000

       COSMO equation is solved iteratively-               conjugate-gradient

       Maximun of Iterations for Charges (NCIX)                  1000
       Criterion for Charge convergence (CCNV)                1.0E-08

  COSMO charges included variationally in SCF

       COSMO included at every SCF cycle

  Geometry-dependent empirical factor                         0.00000

  C-Matrix calculated in cspmtx

  In cspmtx, C-Matrix calculated using fitted potential

-------------------------------------------



 -------------------------------------------
  COSMO surface
  Area             =          639.021
  Volume           =         1153.578
  Number of Points =         1545
 -------------------------------------------
 
 RIHartreeFock Dependency: number of modified vectors:          10
 cosmo_calcen: 0.5 (esolb+esolc) (Hartrees) =   -0.130445

 Solvation energy (screening term,uncorrected) =    -81.855682 kcal/mol

 Solvation energy (dispersion and cavitation terms) =      1.194920 kcal/mol
 Solvation Energy Contributions (Hartrees)
          esola   esolb+esolc
     0.13044532   -0.26089064
 esol last cycle   -0.13044532
  
 Hartree-Fock exchange energy:   -546.412066418015     
 cosmo_calcen: 0.5 (esolb+esolc) (Hartrees) =   -0.130445

 Solvation energy (screening term,uncorrected) =    -81.855681 kcal/mol

 Solvation energy (dispersion and cavitation terms) =      1.194920 kcal/mol
 Solvation Energy Contributions (Hartrees)
          esola   esolb+esolc
     0.13044532   -0.26089063
 esol last cycle   -0.13044532

 Energy gradients wrt nuclear displacements
 ==========================================

     Atom      Cartesian (a.u./angstrom)
                 X         Y         Z
 ----------------------------------------
     1 Pa    0.001211 -0.004794 -0.003360
     2 O    -0.009260 -0.006636 -0.002523
     3 O     0.000100 -0.000394  0.000034
     4 Cl   -0.000029  0.000138  0.000052
     5 H    -0.000002  0.000100  0.000274
     6 O     0.002945  0.006929  0.003800
     7 H    -0.000061 -0.000004  0.000061
     8 H     0.000042  0.000105  0.000121
     9 H    -0.000051 -0.000044 -0.000064
[...]
       3.384  0.00   104 A         21.54%     1 S              -6.582  1.00    11 H
                                   21.01%     1 S              -6.582  1.00    14 H
                                   20.26%     1 S              -6.582  1.00    10 H
                                   20.02%     1 S              -6.582  1.00    13 H
                                   13.36%     5 D:xz            2.364  0.00     1 Pa
                                    8.39%     5 D:xy            2.364  0.00     1 Pa
                                    4.02%     5 D:x2-y2         2.364  0.00     1 Pa
                                   -3.70%     2 P:z            10.811  0.00     4 O
                                   -3.58%     2 P:z            10.811  0.00     6 O
                                   -3.33%     2 S               3.073  0.00    13 H
                                   -3.32%     2 S               3.073  0.00    10 H
                                   -3.12%     2 S               3.073  0.00    11 H
                                   -3.00%     2 S               3.073  0.00    14 H
                                    2.18%     1 P:z            -9.955  1.33     4 O
                                    2.09%     1 P:z            -9.955  1.33     6 O
                                   -1.82%     2 P:y            10.811  0.00     6 O
                                   -1.67%     2 P:y            10.811  0.00     4 O
                                    1.61%     3 S              43.500  0.00    11 H
                                    1.57%     3 S              43.500  0.00    14 H
                                    1.53%     3 S              43.500  0.00    10 H
                                    1.52%     3 S              43.500  0.00    13 H
                                    1.02%     5 D:yz            2.364  0.00     1 Pa
       3.613  0.00   105 A         66.73%     8 S               0.919  0.00     1 Pa
                                  -26.36%     7 S              -4.760  2.00     1 Pa
                                   21.81%     5 D:z2            2.364  0.00     1 Pa
                                    9.71%     1 S              -6.582  1.00    14 H
                                    9.28%     1 S              -6.582  1.00    11 H
                                    8.95%     1 S              -6.582  1.00     9 H
                                    6.56%     1 S              -6.582  1.00    16 H
                                    6.53%     1 S              -6.582  1.00    12 H
                                   -4.08%     2 S               3.073  0.00    14 H
                                   -3.93%     2 S               3.073  0.00    11 H
                                   -3.60%     3 P:y             7.199  0.00     8 Cl
                                    2.97%     2 S               3.073  0.00     9 H
                                    1.86%     5 D:yz            2.364  0.00     1 Pa
                                    1.50%     2 P:y            -9.674  1.67     8 Cl
                                   -1.33%     2 P:x            10.811  0.00     6 O
                                   -1.30%     2 S               3.073  0.00    16 H
                                   -1.30%     2 S               3.073  0.00    12 H
                                   -1.25%     2 P:z            10.811  0.00     4 O
                                   -1.11%     4 D:z2           -1.800  0.20     1 Pa
                                   -1.03%     2 P:z            10.811  0.00     3 O

 Energy gradients wrt nuclear displacements
 ==========================================

     Atom      Cartesian (a.u./angstrom)
                 X         Y         Z
 ----------------------------------------
     1 Pa    0.001398 -0.004668 -0.003791
     2 O    -0.009406 -0.006791 -0.002763
     3 O    -0.000044  0.000010 -0.000033
     4 Cl   -0.000009  0.000017  0.000030
     5 H     0.000036  0.000045  0.000005
     6 O     0.002734  0.007099  0.004244
     7 H     0.000010 -0.000001 -0.000023
     8 H     0.000005 -0.000011 -0.000048
     9 H    -0.000010  0.000005  0.000019
    10 O     0.000002 -0.000030  0.000029
    11 O    -0.006979  0.003260  0.003104
    12 H     0.000019 -0.000004 -0.000006
    13 H    -0.000003 -0.000012 -0.000021
    14 O     0.012266  0.001064 -0.000759
    15 H    -0.000027  0.000006 -0.000018
    16 H    -0.000010 -0.000002  0.000000
    17 H     0.000019  0.000013  0.000030
 ----------------------------------------



 =======================================================================
 Electrostatic potential at the Nuclei due to electrons and other nuclei
 =======================================================================
  
         Atom                  Potential
         ----                  ---------
     1)   Pa                787.25335106
     2)   O                  22.18066726
     3)   O                  22.22184093
     4)   Cl                 64.84700986
     5)   H                   0.81253132
     6)   O                  22.13192976
     7)   H                   0.74399312
     8)   H                   0.74968274
     9)   H                   0.81312520
    10)   O                  22.31335948
    11)   O                  22.13206254
    12)   H                   0.74424034
    13)   H                   0.74983994
    14)   O                  22.18053054
    15)   H                   0.78299572
    16)   H                   0.81299918
    17)   H                   0.78326886
 Mulliken charges used for AMS results%charges...
 MEMORY DEALLOCATION WARNING: Cosmo gSolv%cosmoData%csp NOT FOUND


    =====================
     CALCULATION RESULTS
    =====================

Energy (hartree)            -4.27730863

Gradients (hartree/bohr)
  Index   Atom            d/dx            d/dy            d/dz
      1     Pa    0.0007395330   -0.0024699658   -0.0020058856
      2      O   -0.0049773995   -0.0035937342   -0.0014621871
      3      O   -0.0000231308    0.0000050874   -0.0000175820
      4     Cl   -0.0000049105    0.0000092354    0.0000158158
      5      H    0.0000192029    0.0000236216    0.0000027649
      6      O    0.0014465603    0.0037566871    0.0022456529
      7      H    0.0000054706   -0.0000005357   -0.0000119494
      8      H    0.0000025151   -0.0000059798   -0.0000254266
      9      H   -0.0000055343    0.0000025551    0.0000099908
     10      O    0.0000008950   -0.0000159248    0.0000152389
     11      O   -0.0036933124    0.0017252102    0.0016426169
     12      H    0.0000101400   -0.0000020627   -0.0000030828
     13      H   -0.0000013440   -0.0000060909   -0.0000110129
     14      O    0.0064907786    0.0005631953   -0.0004014966
     15      H   -0.0000140967    0.0000030784   -0.0000097887
     16      H   -0.0000052979   -0.0000010785    0.0000002238
     17      H    0.0000099308    0.0000067020    0.0000161075


--------------
Atomic charges
--------------
  Index   Atom    Charge
      1     Pa    2.5309
      2      O   -0.3748
      3      O   -0.6005
      4     Cl   -0.5792
      5      H    0.0972
      6      O   -0.3926
      7      H    0.2332
      8      H    0.2415
      9      H    0.2316
     10      O   -0.7842
     11      O   -0.3932
     12      H    0.2333
     13      H    0.2420
     14      O   -0.3735
     15      H    0.2284
     16      H    0.2307
     17      H    0.2290


Dipole moment vector    (Debye):     1.99522405   -8.58541998   -7.17255241
              magnitude (Debye):    11.36379617


-----------------------
Molecular orbitals info
-----------------------
n orbitals:              424
n spin:                    1

Note: only printing virtual orbitals with
      energy smaller than HOMO + 100. eV

HOMO (eV):              -8.5239
LUMO (eV):              -1.8157
HOMO-LUMO gap (eV):      6.7082

   Index   Energy (eV)    Occupation
     271       90.3108         0.000       
     270       89.3475         0.000       
     269       89.0450         0.000       
     268       88.7587         0.000       
     267       86.9865         0.000       
     266       85.8946         0.000       
     265       85.6446         0.000       
     264       85.2556         0.000       
     263       84.8192         0.000       
     262       83.9975         0.000       
     261       83.9072         0.000       
     260       83.3268         0.000       
     259       83.1467         0.000       
     258       82.9416         0.000       
     257       82.8771         0.000       
     256       81.7728         0.000       
     255       79.4891         0.000       
     254       78.4652         0.000       
     253       77.4192         0.000       
     252       77.3006         0.000       
     251       76.4345         0.000       
     250       75.8810         0.000       
     249       75.0887         0.000       
     248       74.6960         0.000       
     247       73.7965         0.000       
     246       73.4117         0.000       
     245       72.5624         0.000       
     244       71.4672         0.000       
     243       71.4412         0.000       
     242       70.5535         0.000       
     241       70.0937         0.000       
     240       70.0467         0.000       
     239       69.8361         0.000       
     238       68.0026         0.000       
     237       66.2753         0.000       
     236       65.3870         0.000       
     235       64.9973         0.000       
     234       63.8390         0.000       
     233       63.5616         0.000       
     232       62.5371         0.000       
     231       61.8186         0.000       
     230       60.9695         0.000       
     229       60.2494         0.000       
     228       59.9538         0.000       
     227       58.2317         0.000       
     226       57.2071         0.000       
     225       56.5166         0.000       
     224       56.2050         0.000       
     223       54.4268         0.000       
     222       54.3104         0.000       
     221       53.8773         0.000       
     220       52.9562         0.000       
     219       51.7910         0.000       
     218       50.6313         0.000       
     217       49.0037         0.000       
     216       48.9125         0.000       
     215       48.5198         0.000       
     214       48.2430         0.000       
     213       47.9845         0.000       
     212       47.4231         0.000       
     211       46.6183         0.000       
     210       46.2958         0.000       
     209       45.8757         0.000       
     208       45.4406         0.000       
     207       45.0008         0.000       
     206       44.2426         0.000       
     205       43.6202         0.000       
     204       43.2181         0.000       
     203       41.8701         0.000       
     202       41.5627         0.000       
     201       40.3428         0.000       
     200       40.2222         0.000       
     199       40.0449         0.000       
     198       39.4777         0.000       
     197       39.4347         0.000       
     196       38.8222         0.000       
     195       38.1666         0.000       
     194       38.0176         0.000       
     193       37.9007         0.000       
     192       37.6620         0.000       
     191       37.3371         0.000       
     190       37.2420         0.000       
     189       37.0313         0.000       
     188       36.1931         0.000       
     187       36.1463         0.000       
     186       35.9436         0.000       
     185       35.6916         0.000       
     184       35.3632         0.000       
     183       35.2032         0.000       
     182       34.3983         0.000       
     181       34.3358         0.000       
     180       33.8910         0.000       
     179       33.8458         0.000       
     178       33.6720         0.000       
     177       33.3913         0.000       
     176       32.8217         0.000       
     175       32.4569         0.000       
     174       32.3956         0.000       
     173       31.7101         0.000       
     172       30.7253         0.000       
     171       30.1965         0.000       
     170       28.1894         0.000       
     169       27.6450         0.000       
     168       27.0114         0.000       
     167       26.6204         0.000       
     166       25.6386         0.000       
     165       24.8788         0.000       
     164       24.4733         0.000       
     163       23.7866         0.000       
     162       22.7742         0.000       
     161       22.5850         0.000       
     160       22.2056         0.000       
     159       21.9752         0.000       
     158       20.8090         0.000       
     157       20.0423         0.000       
     156       19.6243         0.000       
     155       19.5639         0.000       
     154       19.3507         0.000       
     153       18.9087         0.000       
     152       17.9456         0.000       
     151       17.9319         0.000       
     150       17.4631         0.000       
     149       17.1516         0.000       
     148       16.7603         0.000       
     147       16.2785         0.000       
     146       16.0885         0.000       
     145       15.9891         0.000       
     144       15.7837         0.000       
     143       15.7079         0.000       
     142       15.3595         0.000       
     141       15.2111         0.000       
     140       14.9484         0.000       
     139       14.5709         0.000       
     138       14.4902         0.000       
     137       14.0485         0.000       
     136       13.7753         0.000       
     135       13.7581         0.000       
     134       13.6649         0.000       
     133       13.1022         0.000       
     132       12.8940         0.000       
     131       12.5128         0.000       
     130       12.4655         0.000       
     129       12.0653         0.000       
     128       11.8138         0.000       
     127       11.7622         0.000       
     126       10.6399         0.000       
     125       10.3626         0.000       
     124       10.1462         0.000       
     123        9.7907         0.000       
     122        9.7636         0.000       
     121        9.5060         0.000       
     120        9.1564         0.000       
     119        8.4238         0.000       
     118        8.0814         0.000       
     117        7.8342         0.000       
     116        7.7323         0.000       
     115        7.3257         0.000       
     114        6.9688         0.000       
     113        6.8179         0.000       
     112        5.7203         0.000       
     111        5.3834         0.000       
     110        5.2052         0.000       
     109        5.1438         0.000       
     108        4.4789         0.000       
     107        3.8848         0.000       
     106        3.7073         0.000       
     105        3.6125         0.000       
     104        3.3842         0.000       
     103        3.1835         0.000       
     102        2.3774         0.000       
     101        2.2847         0.000       
     100        2.1734         0.000       
      99        2.0322         0.000       
      98        1.9746         0.000       
      97        1.8853         0.000       
      96        1.6940         0.000       
      95        1.4752         0.000       
      94        1.1420         0.000       
      93        0.7736         0.000       
      92        0.4964         0.000       
      91        0.3861         0.000       
      90        0.1450         0.000       
      89       -0.5182         0.000       
      88       -0.8369         0.000       
      87       -1.0331         0.000       
      86       -1.6313         0.000       
      85       -1.6941         0.000       
      84       -1.7765         0.000       
      83       -1.8157         0.000 < LUMO
      82       -8.5239         2.000 < HOMO
      81       -8.7611         2.000       
      80       -9.0957         2.000       
      79       -9.1502         2.000       
      78       -9.9303         2.000       
      77      -10.1728         2.000       
      76      -10.1830         2.000       
      75      -10.5771         2.000       
      74      -10.6278         2.000       
      73      -11.0825         2.000       
      72      -11.2444         2.000       
      71      -11.3446         2.000       
      70      -12.9182         2.000       
      69      -13.2102         2.000       
      68      -13.7704         2.000       
      67      -13.8094         2.000       
      66      -14.3860         2.000       
      65      -16.5289         2.000       
      64      -16.6000         2.000       
      63      -16.6091         2.000       
      62      -16.6745         2.000       
      61      -21.4535         2.000       
      60      -21.5747         2.000       
      59      -25.4243         2.000       
      58      -25.6757         2.000       
      57      -27.5905         2.000       
      56      -30.0082         2.000       
      55      -30.0163         2.000       
      54      -30.3072         2.000       
      53      -30.3607         2.000       
      52      -30.7733         2.000       
      51      -50.3347         2.000       
      50     -100.0440         2.000       
      49     -100.0918         2.000       
      48     -100.0975         2.000       
      47     -100.2271         2.000       
      46     -100.2323         2.000       
      45     -196.2360         2.000       
      44     -196.2422         2.000       
      43     -196.2685         2.000       
      42     -207.1291         2.000       
      41     -207.4857         2.000       
      40     -207.4872         2.000       
      39     -259.7997         2.000       
      38     -305.8813         2.000       
      37     -361.0635         2.000       
      36     -361.1083         2.000       
      35     -361.1110         2.000       
      34     -361.2882         2.000       
      33     -361.2907         2.000       
      32     -361.4824         2.000       
      31     -361.4826         2.000       
      30     -522.8879         2.000       
      29     -523.6671         2.000       
      28     -524.6574         2.000       
      27     -524.6619         2.000       
      26     -524.8390         2.000       
      25     -524.8408         2.000       
      24     -712.8676         2.000       
      23     -713.0588         2.000       
      22     -713.0602         2.000       
      21     -713.3230         2.000       
      20     -713.3266         2.000       
      19    -1041.1315         2.000       
      18    -1041.5683         2.000       
      17    -1041.5739         2.000       
      16    -1359.6022         2.000       
      15    -2775.9807         2.000       
      14    -3484.7836         2.000       
      13    -3484.8583         2.000       
      12    -3484.8586         2.000       
      11    -3484.9794         2.000       
      10    -3484.9806         2.000       
       9    -4346.9757         2.000       
       8    -4347.2204         2.000       
       7    -4347.2232         2.000       
       6    -5318.2001         2.000       
       5   -17561.1505         2.000       
       4   -17561.1849         2.000       
       3   -17561.1852         2.000       
       2   -21036.9726         2.000       
       1  -112698.7794         2.000       

AMS application finished. Exiting.
NORMAL TERMINATION
     Total cpu time:   39609.75
  Total system time:     766.45
 Total elapsed time:   40374.91
