

 Parallel Execution: Process Information
 ==============================================================================
 Rank   Node Name                              NodeID   MyNodeRank  NodeMaster
    0   u-0-11.local                              0          0          0
    1   u-0-11.local                              0          1         -1
    2   u-0-11.local                              0          2         -1
    3   u-0-11.local                              0          3         -1
    4   u-0-11.local                              1          0          1
    5   u-0-11.local                              1          1         -1
    6   u-0-11.local                              1          2         -1
    7   u-0-11.local                              1          3         -1
    8   u-0-11.local                              2          0          2
    9   u-0-11.local                              2          1         -1
   10   u-0-11.local                              2          2         -1
   11   u-0-11.local                              2          3         -1
   12   u-0-11.local                              3          0          3
   13   u-0-11.local                              3          1         -1
   14   u-0-11.local                              3          2         -1
   15   u-0-11.local                              3          3         -1
 ==============================================================================


May use up to 31200MB of RAM as shared memory on node 0
May use up to 31250MB of RAM as shared memory on node 1
May use up to 31250MB of RAM as shared memory on node 2
May use up to 31250MB of RAM as shared memory on node 3

 *******************************************************************************
 *                                                                             *
 *  --------------------------------                                           *
 *   Amsterdam Modeling Suite (AMS)              2024.103                      *
 *  --------------------------------                                           *
 *                                               r241004 2024-10-04 d82be5f7   *
 *                                                                             *
 *                                                                             *
 *                              =================                              *
 *                              |               |                              *
 *                              |     A M S     |                              *
 *                              |               |                              *
 *                              =================                              *
 *                                                                             *
 *                                                                             *
 *   Online information and documentation:  https://www.scm.com/support/       *
 *   E-mail:  support@scm.com   info@scm.com                                   *
 *                                                                             *
 *   Scientific publications using AMS results must be properly referenced     *
 *   See the User Manuals (or the web site) for recommended citations          *
 *   The terms and conditions of the End User License Agreement apply to       *
 *   the use of AMS, https://www.scm.com/license-terms/                        *
 *                                                                             *
 **********************  x86_64_linux_intel / intelmpi  ************************
 
 Licensed to: Dr. Val?rie Vallet / Laboratoire PhLAM UMR 8523 / Villeneuve d'Ascq Cedex / FRANCE 2024-12-20 16:14:47
 SCM User ID: u10325
  
 AMS 2024.103  RunTime: Jun05-2025 14:53:09  ShM Nodes: 4  Procs: 16

 AMS jobname: pao_oh_cl_3h2o-h2o-trans.SR.pbe0.tz2p.opt-freq-solvation
 AMS jobid  : 504428154

 Start   directory: /state/partition2/shaaban/1052180.phlam-s-sakura/
 Results directory: /home/shaaban/ams/PhD/geometries-exafs/pao_oh_cl_4h2o/PBE0/pao_oh_cl_3h2o-h2o-trans.SR.pbe0.tz2p.opt-freq-solvation.results/
 Scratch directory: /state/partition2/shaaban/1052180.phlam-s-sakura/amstmp_pao_oh_cl_3h2o-h2o-trans.SR.pbe0.tz2p.opt-freq-solvation_kid0.504428154/


 Communication costs MPI_COMM_WORLD:     25.563 usec per message,  -0.0050 usec per 8-byte item
 Communication costs for intra-node:      1.974 usec per message,   0.0038 usec per 8-byte item

 RNG seed: -1920081344 41963826 1089871059 148005571 -823194367 -363302080 1149157611 257115393



                     *************************************************************************
                     *  ADF 2024.103  RunTime: Jun05-2025 14:53:11  ShM Nodes: 4  Procs: 16  *
                     *************************************************************************
  

       ***************************
       *  GEOMETRY OPTIMIZATION  *
       ***************************

Optimization Method                    Quasi Newton
Optimization Coordinates               Delocalized Coordinates
Optimize lattice                       F
 
 ------------------------------------------------------
 Convergence criteria (Hartree,Angstrom)
 ------------------------------------------------------
 Maximum gradient               0.000100000000
 Maximum rms gradient           0.000066666667
 Maximum step allowed           0.001000000000
 Maximum rms step allowed       0.000666666667
 Maximum energy change allowe   0.000017000000
 Maximum stress energy allowe   0.000500000000
 
Initial model Hessian                  Automatic Hessian
 
------------------------------------
Quasi-Newton Optimizer Parameters
------------------------------------
Hessian Update Method                  BFGS
Maximum number of steps                  250
First GDIIS cycle                          0
Maximum GDIIS vectors                      0
Trust radius (bohr)                        0.200000
Trust radius varies                        T
Constraints converged at all steps         T
Use projector                              T
 
 Rigid motions settings for: old optimizer
 Atomic rotations (x,y,z):     T T T
 Atomic translations (x,y,z):  T T T
 Tolerance:                   1.000000000000000E-006
 
--------
Geometry
--------
Formula: H9ClO6Pa
Atoms
  Index Symbol   x (angstrom)   y (angstrom)   z (angstrom)
      1     Pa    -0.34817815    -0.08750419     0.53829775       adf.R=2.200
      2      O     1.69103982     1.24310221     0.99866755       adf.R=1.517
      3      O    -0.52075743     0.97564503    -1.73993186       adf.R=1.517
      4      O    -1.06075597     1.58581612     1.56221598       adf.R=1.517
      5      H     2.58421491     0.88814521     0.93649710       adf.R=1.350
      6      O    -1.10167669    -2.17075937    -0.67101224       adf.R=1.517
      7      H    -1.19210715    -2.25721338    -1.62631142       adf.R=1.350
      8      H    -0.93817557    -3.05533147    -0.32623556       adf.R=1.350
      9      H     1.70202934     1.96158894     1.63957470       adf.R=1.350
     10      O    -0.05753122    -1.25197787     1.92249295       adf.R=1.517
     11     Cl     1.82611238    -1.17187298    -0.44201089       adf.R=1.725
     12      H    -0.84978124     0.14719632    -2.09632501       adf.R=1.350
     13      H     0.18834861     0.37383789    -1.97783265       adf.R=1.350
     14      O    -2.80822599    -0.40437640     0.56631748       adf.R=1.517
     15      H    -3.23853708    -1.24159314     0.36246609       adf.R=1.350
     16      H    -3.38634644     0.08959017     1.15692782       adf.R=1.350
     17      H    -1.27198864     1.92153065     2.43784296       adf.R=1.350
 
Total System Charge             1.00000
Bonding info available!
 
 
----------------
ADF Engine Input
----------------
 
 Basis
 Type TZ2P
 Core None
 End
 XC
 Hybrid PBE0
 End
 Solvation
 Surf Delley
 Solv name=Water cav0=0.0 cav1=0.0067639
 Charged method=CONJ
 C-Mat POT
 SCF VAR ALL
 CSMRSP
 End
 NumericalQuality Good
 MBPT
 SigmaFunctionalParametrization W1
 End
 

 Title: *** (NO TITLE) ***

 Using automatic Hessian for delocalized coordinates.
 *** GO1_GOStep1 ***

 SOLVATION
-------------------------------------------

  The Delley construction of COSMO surface surface is calculated

       Division Level for Surface Triangles (NDIV)                  3
       Final Division Level for Triangles (NFDIV)                   1
       Radius of the Solvent (RSOL)                           1.93000 angstr
  Dielectric Constant (EPSL)                                 78.39000

       COSMO equation is solved iteratively-               conjugate-gradient

       Maximun of Iterations for Charges (NCIX)                  1000
       Criterion for Charge convergence (CCNV)                1.0E-08

  COSMO charges included variationally in SCF

       COSMO included at every SCF cycle

  Geometry-dependent empirical factor                         0.00000

  C-Matrix calculated in cspmtx

  In cspmtx, C-Matrix calculated using fitted potential

-------------------------------------------



 -------------------------------------------
  COSMO surface
  Area             =          625.602
  Volume           =         1138.679
  Number of Points =         1568
 -------------------------------------------
 
 RIHartreeFock Dependency: number of modified vectors:          10
 cosmo_calcen: 0.5 (esolb+esolc) (Hartrees) =   -0.131160

 Solvation energy (screening term,uncorrected) =    -82.304277 kcal/mol

 Solvation energy (dispersion and cavitation terms) =      1.169827 kcal/mol
 Solvation Energy Contributions (Hartrees)
          esola   esolb+esolc
     0.13116020   -0.26232040
 esol last cycle   -0.13116020
  
 Hartree-Fock exchange energy:   -546.367148125792     
 cosmo_calcen: 0.5 (esolb+esolc) (Hartrees) =   -0.131160

 Solvation energy (screening term,uncorrected) =    -82.304273 kcal/mol

 Solvation energy (dispersion and cavitation terms) =      1.169827 kcal/mol
 Solvation Energy Contributions (Hartrees)
          esola   esolb+esolc
     0.13116019   -0.26232039
 esol last cycle   -0.13116019

 Energy gradients wrt nuclear displacements
 ==========================================

     Atom      Cartesian (a.u./angstrom)
                 X         Y         Z
 ----------------------------------------
     1 Pa    0.000356 -0.004411 -0.057936
     2 O     0.005110 -0.010553 -0.006433
     3 O    -0.005188  0.049533 -0.010171
     4 O    -0.003851  0.007404  0.004669
     5 H     0.001586  0.002216  0.001522
     6 O     0.010239 -0.006760  0.005278
     7 H     0.000994  0.007773 -0.001382
     8 H    -0.002685 -0.000072 -0.000148
     9 H     0.000929 -0.002121 -0.001086
    10 O     0.012839 -0.008532 -0.002187
    11 Cl   -0.016675  0.008627  0.027366
    12 H     0.154767  0.009783  0.035727
    13 H    -0.157958 -0.052280  0.004161
    14 O    -0.001732  0.000823  0.002404
    15 H     0.000824  0.000687 -0.000246
    16 H     0.000438 -0.000738 -0.000068
    17 H     0.000009 -0.001380 -0.001470
 ----------------------------------------
 Mulliken charges used for AMS results%charges...
 
----------------------------------------------------------------------
Geometry Convergence after Step   1       (Hartree/Angstrom,Angstrom)
----------------------------------------------------------------------
current energy                               -4.19514429 Hartree
energy change                      -4.19514429     0.00001700    F
constrained gradient max            0.15800309     0.00010000    F
constrained gradient rms            0.03455057     0.00006667    F
gradient max                        0.15800309
gradient rms                        0.03455057
cart. step max                      0.04715116     0.00100000    F
cart. step rms                      0.01304974     0.00066667    F
 
 
--------
Geometry
--------
Formula: H9ClO6Pa
Atoms
  Index Symbol   x (angstrom)   y (angstrom)   z (angstrom)
      1     Pa    -0.34071832    -0.09150554     0.53972885       adf.R=2.200
      2      O     1.68666393     1.25322817     1.01208822       adf.R=1.517
      3      O    -0.51356307     0.97480424    -1.73829802       adf.R=1.517
      4      O    -1.04932276     1.58121290     1.56217078       adf.R=1.517
      5      H     2.58123472     0.90176911     0.95311106       adf.R=1.350
      6      O    -1.10943818    -2.17304404    -0.66696820       adf.R=1.517
      7      H    -1.20544141    -2.27057816    -1.62043487       adf.R=1.350
      8      H    -0.94703588    -3.05569140    -0.31632667       adf.R=1.350
      9      H     1.68999756     1.97179216     1.65416642       adf.R=1.350
     10      O    -0.06040565    -1.25017167     1.92853438       adf.R=1.517
     11     Cl     1.82900097    -1.18433807    -0.46760728       adf.R=1.725
     12      H    -0.89693240     0.15847657    -2.13557419       adf.R=1.350
     13      H     0.22628064     0.37394619    -1.98066056       adf.R=1.350
     14      O    -2.80086786    -0.40674461     0.56480759       adf.R=1.517
     15      H    -3.23231038    -1.24335841     0.35944852       adf.R=1.350
     16      H    -3.37915300     0.08719918     1.15566142       adf.R=1.350
     17      H    -1.26030537     1.91882708     2.43779330       adf.R=1.350
 
Total System Charge             1.00000
Bonding info available!
 
 *** GO1_GOStep2 ***

 SOLVATION
-------------------------------------------

  The Delley construction of COSMO surface surface is calculated

       Division Level for Surface Triangles (NDIV)                  3
       Final Division Level for Triangles (NFDIV)                   1
       Radius of the Solvent (RSOL)                           1.93000 angstr
  Dielectric Constant (EPSL)                                 78.39000

       COSMO equation is solved iteratively-               conjugate-gradient

       Maximun of Iterations for Charges (NCIX)                  1000
       Criterion for Charge convergence (CCNV)                1.0E-08

  COSMO charges included variationally in SCF

       COSMO included at every SCF cycle

  Geometry-dependent empirical factor                         0.00000

  C-Matrix calculated in cspmtx

  In cspmtx, C-Matrix calculated using fitted potential

-------------------------------------------



 -------------------------------------------
  COSMO surface
  Area             =          626.776
  Volume           =         1142.686
  Number of Points =         1573
 -------------------------------------------
 
 RIHartreeFock Dependency: number of modified vectors:          10
 cosmo_calcen: 0.5 (esolb+esolc) (Hartrees) =   -0.130904

 Solvation energy (screening term,uncorrected) =    -82.143669 kcal/mol

 Solvation energy (dispersion and cavitation terms) =      1.172023 kcal/mol
 Solvation Energy Contributions (Hartrees)
          esola   esolb+esolc
     0.13090426   -0.26180851
 esol last cycle   -0.13090426
  
 Hartree-Fock exchange energy:   -546.341178374139     
 cosmo_calcen: 0.5 (esolb+esolc) (Hartrees) =   -0.130904

 Solvation energy (screening term,uncorrected) =    -82.143655 kcal/mol

 Solvation energy (dispersion and cavitation terms) =      1.172023 kcal/mol
 Solvation Energy Contributions (Hartrees)
          esola   esolb+esolc
     0.13090423   -0.26180846
 esol last cycle   -0.13090423

 Energy gradients wrt nuclear displacements
 ==========================================

     Atom      Cartesian (a.u./angstrom)
                 X         Y         Z
 ----------------------------------------
     1 Pa    0.000518 -0.004828 -0.049668
     2 O     0.004792 -0.008657 -0.005388
     3 O    -0.017324  0.108925  0.019240
     4 O    -0.002169  0.005504  0.002840
     5 H     0.000774  0.001744  0.001210
     6 O     0.009703 -0.005023  0.004491
     7 H     0.000670  0.006513 -0.000831
     8 H    -0.002485 -0.000369 -0.000510
     9 H     0.000678 -0.000449  0.000013
    10 O     0.010763 -0.006098 -0.003301
    11 Cl   -0.014413  0.005281  0.023856
    12 H     0.106588 -0.036023  0.013101
    13 H    -0.097609 -0.065778 -0.006607
    14 O    -0.000824  0.000579  0.002023
    15 H     0.000351  0.000215 -0.000348
    16 H     0.000191 -0.000555  0.000220
    17 H    -0.000204 -0.000982 -0.000344
 ----------------------------------------
 Mulliken charges used for AMS results%charges...

 dE(predicted):    -0.13552E-01, dE(actual):    -0.13652E-01, Trust radius:    0.400000, all in a.u.
 
----------------------------------------------------------------------
Geometry Convergence after Step   2       (Hartree/Angstrom,Angstrom)
----------------------------------------------------------------------
current energy                               -4.20879646 Hartree
energy change                      -0.01365217     0.00001700    F
constrained gradient max            0.10897994     0.00010000    F
constrained gradient rms            0.02906878     0.00006667    F
gradient max                        0.10897994
gradient rms                        0.02906878
cart. step max                      0.07807913     0.00100000    F
cart. step rms                      0.02527626     0.00066667    F
 
 
--------
Geometry
--------
Formula: H9ClO6Pa
Atoms
  Index Symbol   x (angstrom)   y (angstrom)   z (angstrom)
      1     Pa    -0.32702237    -0.10168208     0.54368641       adf.R=2.200
      2      O     1.67844826     1.26817081     1.03484735       adf.R=1.517
      3      O    -0.48852445     0.95547642    -1.74355620       adf.R=1.517
      4      O    -1.03272431     1.57042960     1.56026962       adf.R=1.517
      5      H     2.57595234     0.92316672     0.98152666       adf.R=1.350
      6      O    -1.12939336    -2.18190607    -0.65260026       adf.R=1.517
      7      H    -1.23839026    -2.30462797    -1.60169430       adf.R=1.350
      8      H    -0.96715709    -3.05867854    -0.28684912       adf.R=1.350
      9      H     1.66825721     1.98616577     1.67752285       adf.R=1.350
     10      O    -0.06904799    -1.24784583     1.94450931       adf.R=1.517
     11     Cl     1.83793602    -1.19228427    -0.52650960       adf.R=1.725
     12      H    -0.96152395     0.22043347    -2.21365332       adf.R=1.350
     13      H     0.28798530     0.38207469    -1.98288234       adf.R=1.350
     14      O    -2.78726442    -0.41494184     0.56335754       adf.R=1.517
     15      H    -3.21985511    -1.25048257     0.35546739       adf.R=1.350
     16      H    -3.36611694     0.07875778     1.15414314       adf.R=1.350
     17      H    -1.24387535     1.91359764     2.43405561       adf.R=1.350
 
Total System Charge             1.00000
Bonding info available!
 
 *** GO1_GOStep3 ***

 SOLVATION
-------------------------------------------

  The Delley construction of COSMO surface surface is calculated

       Division Level for Surface Triangles (NDIV)                  3
       Final Division Level for Triangles (NFDIV)                   1
       Radius of the Solvent (RSOL)                           1.93000 angstr
  Dielectric Constant (EPSL)                                 78.39000

       COSMO equation is solved iteratively-               conjugate-gradient

       Maximun of Iterations for Charges (NCIX)                  1000
       Criterion for Charge convergence (CCNV)                1.0E-08

  COSMO charges included variationally in SCF

       COSMO included at every SCF cycle

  Geometry-dependent empirical factor                         0.00000

  C-Matrix calculated in cspmtx

  In cspmtx, C-Matrix calculated using fitted potential

-------------------------------------------



 -------------------------------------------
  COSMO surface
  Area             =          626.741
  Volume           =         1144.312
  Number of Points =         1570
 -------------------------------------------
 
 RIHartreeFock Dependency: number of modified vectors:          10
 cosmo_calcen: 0.5 (esolb+esolc) (Hartrees) =   -0.130043

 Solvation energy (screening term,uncorrected) =    -81.602942 kcal/mol

 Solvation energy (dispersion and cavitation terms) =      1.171957 kcal/mol
 Solvation Energy Contributions (Hartrees)
          esola   esolb+esolc
     0.13004255   -0.26008510
 esol last cycle   -0.13004255
  
 Hartree-Fock exchange energy:   -546.330640807296     
 cosmo_calcen: 0.5 (esolb+esolc) (Hartrees) =   -0.130043

 Solvation energy (screening term,uncorrected) =    -81.602942 kcal/mol

 Solvation energy (dispersion and cavitation terms) =      1.171957 kcal/mol
 Solvation Energy Contributions (Hartrees)
          esola   esolb+esolc
     0.13004255   -0.26008510
 esol last cycle   -0.13004255

 Energy gradients wrt nuclear displacements
 ==========================================

     Atom      Cartesian (a.u./angstrom)
                 X         Y         Z
 ----------------------------------------
     1 Pa    0.001710 -0.004311 -0.036309
     2 O     0.003582 -0.004138 -0.002480
     3 O    -0.020937  0.117576  0.034350
     4 O     0.000079  0.002983  0.001310
     5 H     0.000102  0.000644  0.000680
     6 O     0.007815 -0.001734  0.003215
     7 H    -0.000046  0.003588 -0.000246
     8 H    -0.002099 -0.000711 -0.001077
     9 H     0.000258  0.000411  0.000149
    10 O     0.006692 -0.002594 -0.003427
    11 Cl   -0.009570  0.000851  0.017208
    12 H     0.058180 -0.051035 -0.003842
    13 H    -0.045535 -0.059878 -0.011283
    14 O     0.000260 -0.000510  0.001315
    15 H    -0.000252  0.000082 -0.000332
    16 H     0.000005 -0.000498  0.000470
    17 H    -0.000243 -0.000726  0.000300
 ----------------------------------------
 Mulliken charges used for AMS results%charges...

 dE(predicted):    -0.17060E-01, dE(actual):    -0.18680E-01, Trust radius:    0.800000, all in a.u.
 
----------------------------------------------------------------------
Geometry Convergence after Step   3       (Hartree/Angstrom,Angstrom)
----------------------------------------------------------------------
current energy                               -4.22747683 Hartree
energy change                      -0.01868037     0.00001700    F
constrained gradient max            0.11761684     0.00010000    F
constrained gradient rms            0.02391531     0.00006667    F
gradient max                        0.11761684
gradient rms                        0.02391531
cart. step max                      0.15108429     0.00100000    F
cart. step rms                      0.04531311     0.00066667    F
 
 
--------
Geometry
--------
Formula: H9ClO6Pa
Atoms
  Index Symbol   x (angstrom)   y (angstrom)   z (angstrom)
      1     Pa    -0.30671584    -0.12410529     0.55398346       adf.R=2.200
      2      O     1.66758183     1.27872075     1.06729457       adf.R=1.517
      3      O    -0.44087011     0.89845303    -1.75950832       adf.R=1.517
      4      O    -1.02142988     1.54746795     1.55263757       adf.R=1.517
      5      H     2.56982800     0.94449768     1.02001846       adf.R=1.350
      6      O    -1.16425413    -2.20780810    -0.61501489       adf.R=1.517
      7      H    -1.29147319    -2.37466162    -1.55530197       adf.R=1.350
      8      H    -0.99296533    -3.06971665    -0.21853575       adf.R=1.350
      9      H     1.63926456     1.99349918     1.71207619       adf.R=1.350
     10      O    -0.08433464    -1.24995619     1.97572719       adf.R=1.517
     11     Cl     1.85163961    -1.15841386    -0.65962480       adf.R=1.725
     12      H    -1.03774355     0.37151776    -2.32805071       adf.R=1.350
     13      H     0.38449713     0.40066505    -1.98000560       adf.R=1.350
     14      O    -2.76840103    -0.42424513     0.56027597       adf.R=1.517
     15      H    -3.20344235    -1.25714110     0.34758342       adf.R=1.350
     16      H    -3.34825574     0.07189082     1.14812988       adf.R=1.350
     17      H    -1.23524181     1.90515943     2.41995608       adf.R=1.350
 
Total System Charge             1.00000
Bonding info available!
 
 *** GO1_GOStep4 ***

 SOLVATION
-------------------------------------------

  The Delley construction of COSMO surface surface is calculated

       Division Level for Surface Triangles (NDIV)                  3
       Final Division Level for Triangles (NFDIV)                   1
       Radius of the Solvent (RSOL)                           1.93000 angstr
  Dielectric Constant (EPSL)                                 78.39000

       COSMO equation is solved iteratively-               conjugate-gradient

       Maximun of Iterations for Charges (NCIX)                  1000
       Criterion for Charge convergence (CCNV)                1.0E-08

  COSMO charges included variationally in SCF

       COSMO included at every SCF cycle

  Geometry-dependent empirical factor                         0.00000

  C-Matrix calculated in cspmtx

  In cspmtx, C-Matrix calculated using fitted potential

-------------------------------------------



 -------------------------------------------
  COSMO surface
  Area             =          630.059
  Volume           =         1149.985
  Number of Points =         1557
 -------------------------------------------
 
 RIHartreeFock Dependency: number of modified vectors:          10
 cosmo_calcen: 0.5 (esolb+esolc) (Hartrees) =   -0.127331

 Solvation energy (screening term,uncorrected) =    -79.901384 kcal/mol

 Solvation energy (dispersion and cavitation terms) =      1.178161 kcal/mol
 Solvation Energy Contributions (Hartrees)
          esola   esolb+esolc
     0.12733095   -0.25466189
 esol last cycle   -0.12733095
  
 Hartree-Fock exchange energy:   -546.337585181003     
 cosmo_calcen: 0.5 (esolb+esolc) (Hartrees) =   -0.127331

 Solvation energy (screening term,uncorrected) =    -79.901372 kcal/mol

 Solvation energy (dispersion and cavitation terms) =      1.178161 kcal/mol
 Solvation Energy Contributions (Hartrees)
          esola   esolb+esolc
     0.12733093   -0.25466186
 esol last cycle   -0.12733093

 Energy gradients wrt nuclear displacements
 ==========================================

     Atom      Cartesian (a.u./angstrom)
                 X         Y         Z
 ----------------------------------------
     1 Pa    0.004964 -0.003689 -0.017128
     2 O     0.001542  0.001477  0.000923
     3 O    -0.016790  0.060608  0.015525
     4 O     0.001864 -0.000249  0.000211
     5 H    -0.000192 -0.000838  0.000095
     6 O     0.003642  0.002537  0.000727
     7 H    -0.001035 -0.000402  0.000326
     8 H    -0.001329 -0.000884 -0.001229
     9 H    -0.000331  0.000296 -0.000651
    10 O     0.000722  0.001369 -0.001362
    11 Cl   -0.002909 -0.002386  0.007333
    12 H     0.011756 -0.025907 -0.007474
    13 H    -0.002355 -0.028887  0.001268
    14 O     0.001311 -0.002238  0.000470
    15 H    -0.000759  0.000289 -0.000296
    16 H    -0.000091 -0.000497  0.000740
    17 H    -0.000010 -0.000598  0.000520
 ----------------------------------------
 Mulliken charges used for AMS results%charges...

 dE(predicted):    -0.17016E-01, dE(actual):    -0.20190E-01, Trust radius:    1.000000, all in a.u.
 
----------------------------------------------------------------------
Geometry Convergence after Step   4       (Hartree/Angstrom,Angstrom)
----------------------------------------------------------------------
current energy                               -4.24766706 Hartree
energy change                      -0.02019023     0.00001700    F
constrained gradient max            0.06061422     0.00010000    F
constrained gradient rms            0.01116016     0.00006667    F
gradient max                        0.06061422
gradient rms                        0.01116016
cart. step max                      0.10339401     0.00100000    F
cart. step rms                      0.02756652     0.00066667    F
 
 
--------
Geometry
--------
Formula: H9ClO6Pa
Atoms
  Index Symbol   x (angstrom)   y (angstrom)   z (angstrom)
      1     Pa    -0.29938431    -0.14018392     0.56353309       adf.R=2.200
      2      O     1.66408719     1.27199112     1.08288772       adf.R=1.517
      3      O    -0.41568108     0.85893903    -1.76110103       adf.R=1.517
      4      O    -1.02914278     1.53216185     1.54601352       adf.R=1.517
      5      H     2.56892898     0.94533250     1.03220631       adf.R=1.350
      6      O    -1.17457630    -2.23352846    -0.58484928       adf.R=1.517
      7      H    -1.29981863    -2.42243451    -1.52137221       adf.R=1.350
      8      H    -0.98588504    -3.08332061    -0.17028997       adf.R=1.350
      9      H     1.63109736     1.98067261     1.73417196       adf.R=1.350
     10      O    -0.09103596    -1.26243408     1.99094606       adf.R=1.517
     11     Cl     1.84768527    -1.10335287    -0.76301881       adf.R=1.725
     12      H    -1.06099380     0.46391485    -2.36357041       adf.R=1.350
     13      H     0.42040361     0.40651779    -1.98497672       adf.R=1.350
     14      O    -2.76406862    -0.41496530     0.55595028       adf.R=1.517
     15      H    -3.20330473    -1.24497048     0.34123398       adf.R=1.350
     16      H    -3.34398430     0.08871908     1.13704067       adf.R=1.350
     17      H    -1.24664334     1.90276514     2.40683559       adf.R=1.350
 
Total System Charge             1.00000
Bonding info available!
 
 *** GO1_GOStep5 ***

 SOLVATION
-------------------------------------------

  The Delley construction of COSMO surface surface is calculated

       Division Level for Surface Triangles (NDIV)                  3
       Final Division Level for Triangles (NFDIV)                   1
       Radius of the Solvent (RSOL)                           1.93000 angstr
  Dielectric Constant (EPSL)                                 78.39000

       COSMO equation is solved iteratively-               conjugate-gradient

       Maximun of Iterations for Charges (NCIX)                  1000
       Criterion for Charge convergence (CCNV)                1.0E-08

  COSMO charges included variationally in SCF

       COSMO included at every SCF cycle

  Geometry-dependent empirical factor                         0.00000

  C-Matrix calculated in cspmtx

  In cspmtx, C-Matrix calculated using fitted potential

-------------------------------------------



 -------------------------------------------
  COSMO surface
  Area             =          634.590
  Volume           =         1154.841
  Number of Points =         1568
 -------------------------------------------
 
 RIHartreeFock Dependency: number of modified vectors:          10
 cosmo_calcen: 0.5 (esolb+esolc) (Hartrees) =   -0.125266

 Solvation energy (screening term,uncorrected) =    -78.605558 kcal/mol

 Solvation energy (dispersion and cavitation terms) =      1.186635 kcal/mol
 Solvation Energy Contributions (Hartrees)
          esola   esolb+esolc
     0.12526592   -0.25053184
 esol last cycle   -0.12526592
  
 Hartree-Fock exchange energy:   -546.347483559626     
 cosmo_calcen: 0.5 (esolb+esolc) (Hartrees) =   -0.125266

 Solvation energy (screening term,uncorrected) =    -78.605557 kcal/mol

 Solvation energy (dispersion and cavitation terms) =      1.186635 kcal/mol
 Solvation Energy Contributions (Hartrees)
          esola   esolb+esolc
     0.12526592   -0.25053183
 esol last cycle   -0.12526592

 Energy gradients wrt nuclear displacements
 ==========================================

     Atom      Cartesian (a.u./angstrom)
                 X         Y         Z
 ----------------------------------------
     1 Pa    0.006908 -0.003964 -0.008363
     2 O     0.001173  0.002355  0.000917
     3 O    -0.006874  0.020950 -0.009400
     4 O     0.000907 -0.001341  0.000001
     5 H    -0.000442 -0.001027  0.000101
     6 O     0.001706  0.002854 -0.001070
     7 H    -0.001545 -0.001577  0.000349
     8 H    -0.000637 -0.000621 -0.000791
     9 H    -0.000392  0.000431 -0.000751
    10 O    -0.001772  0.002156  0.000337
    11 Cl   -0.001846 -0.001415  0.002555
    12 H     0.004391 -0.007636  0.002146
    13 H    -0.002126 -0.008931  0.012058
    14 O     0.000815 -0.001631  0.001159
    15 H    -0.000337  0.000435 -0.000362
    16 H    -0.000173 -0.000438  0.000655
    17 H     0.000245 -0.000599  0.000458
 ----------------------------------------
 Mulliken charges used for AMS results%charges...
 Rebuilding optimization coordinates

 dE(predicted):    -0.33545E-02, dE(actual):    -0.47856E-02, Trust radius:    1.000000, all in a.u.
 
----------------------------------------------------------------------
Geometry Convergence after Step   5       (Hartree/Angstrom,Angstrom)
----------------------------------------------------------------------
current energy                               -4.25245268 Hartree
energy change                      -0.00478562     0.00001700    F
constrained gradient max            0.02094782     0.00010000    F
constrained gradient rms            0.00459570     0.00006667    F
gradient max                        0.02094782
gradient rms                        0.00459570
cart. step max                      0.07351684     0.00100000    F
cart. step rms                      0.02160144     0.00066667    F
 
 
--------
Geometry
--------
Formula: H9ClO6Pa
Atoms
  Index Symbol   x (angstrom)   y (angstrom)   z (angstrom)
      1     Pa    -0.29731076    -0.15218607     0.57244833       adf.R=2.200
      2      O     1.66358071     1.25958361     1.09289337       adf.R=1.517
      3      O    -0.40882634     0.83529800    -1.75127669       adf.R=1.517
      4      O    -1.03799765     1.52321428     1.54083837       adf.R=1.517
      5      H     2.57034582     0.93950540     1.03333042       adf.R=1.350
      6      O    -1.17533913    -2.25757821    -0.55670892       adf.R=1.517
      7      H    -1.28641951    -2.45888639    -1.49234953       adf.R=1.350
      8      H    -0.96941115    -3.09696871    -0.12932948       adf.R=1.350
      9      H     1.63161333     1.95929271     1.75400942       adf.R=1.350
     10      O    -0.09019588    -1.27891809     1.99736349       adf.R=1.517
     11     Cl     1.84103461    -1.05418995    -0.83448799       adf.R=1.725
     12      H    -1.07456056     0.53743169    -2.38341232       adf.R=1.350
     13      H     0.42769493     0.40632304    -1.99667410       adf.R=1.350
     14      O    -2.76453823    -0.40272169     0.54736377       adf.R=1.517
     15      H    -3.20804607    -1.23078750     0.33362984       adf.R=1.350
     16      H    -3.34490758     0.11079257     1.11895922       adf.R=1.350
     17      H    -1.25903301     1.90661905     2.39504353       adf.R=1.350
 
Total System Charge             1.00000
Bonding info available!
 
 *** GO1_GOStep6 ***

 SOLVATION
-------------------------------------------

  The Delley construction of COSMO surface surface is calculated

       Division Level for Surface Triangles (NDIV)                  3
       Final Division Level for Triangles (NFDIV)                   1
       Radius of the Solvent (RSOL)                           1.93000 angstr
  Dielectric Constant (EPSL)                                 78.39000

       COSMO equation is solved iteratively-               conjugate-gradient

       Maximun of Iterations for Charges (NCIX)                  1000
       Criterion for Charge convergence (CCNV)                1.0E-08

  COSMO charges included variationally in SCF

       COSMO included at every SCF cycle

  Geometry-dependent empirical factor                         0.00000

  C-Matrix calculated in cspmtx

  In cspmtx, C-Matrix calculated using fitted potential

-------------------------------------------



 -------------------------------------------
  COSMO surface
  Area             =          636.327
  Volume           =         1155.738
  Number of Points =         1578
 -------------------------------------------
 
 RIHartreeFock Dependency: number of modified vectors:          10
 cosmo_calcen: 0.5 (esolb+esolc) (Hartrees) =   -0.123866

 Solvation energy (screening term,uncorrected) =    -77.727210 kcal/mol

 Solvation energy (dispersion and cavitation terms) =      1.189882 kcal/mol
 Solvation Energy Contributions (Hartrees)
          esola   esolb+esolc
     0.12386618   -0.24773236
 esol last cycle   -0.12386618
  
 Hartree-Fock exchange energy:   -546.350289420197     
 cosmo_calcen: 0.5 (esolb+esolc) (Hartrees) =   -0.123866

 Solvation energy (screening term,uncorrected) =    -77.727210 kcal/mol

 Solvation energy (dispersion and cavitation terms) =      1.189882 kcal/mol
 Solvation Energy Contributions (Hartrees)
          esola   esolb+esolc
     0.12386618   -0.24773236
 esol last cycle   -0.12386618

 Energy gradients wrt nuclear displacements
 ==========================================

     Atom      Cartesian (a.u./angstrom)
                 X         Y         Z
 ----------------------------------------
     1 Pa    0.007439 -0.003862 -0.003222
     2 O     0.000784  0.001996  0.000085
     3 O     0.001503  0.007040 -0.016674
     4 O    -0.000390 -0.001486 -0.000151
     5 H    -0.000296 -0.000812  0.000292
     6 O     0.000558  0.001921 -0.002407
     7 H    -0.001674 -0.001720  0.000466
     8 H    -0.000114 -0.000335 -0.000281
     9 H    -0.000243  0.000440 -0.000715
    10 O    -0.002497  0.001751  0.001205
    11 Cl   -0.002207  0.000387 -0.000082
    12 H     0.000577 -0.003030  0.003172
    13 H    -0.003799 -0.001237  0.015873
    14 O     0.000041 -0.000288  0.002013
    15 H    -0.000064  0.000235 -0.000531
    16 H    -0.000038 -0.000417  0.000506
    17 H     0.000418 -0.000583  0.000451
 ----------------------------------------
 Mulliken charges used for AMS results%charges...

 dE(predicted):    -0.98708E-03, dE(actual):    -0.15899E-02, Trust radius:    1.000000, all in a.u.
 
----------------------------------------------------------------------
Geometry Convergence after Step   6       (Hartree/Angstrom,Angstrom)
----------------------------------------------------------------------
current energy                               -4.25404259 Hartree
energy change                      -0.00158991     0.00001700    F
constrained gradient max            0.01667601     0.00010000    F
constrained gradient rms            0.00381925     0.00006667    F
gradient max                        0.01667601
gradient rms                        0.00381925
cart. step max                      0.03864946     0.00100000    F
cart. step rms                      0.01012595     0.00066667    F
 
 
--------
Geometry
--------
Formula: H9ClO6Pa
Atoms
  Index Symbol   x (angstrom)   y (angstrom)   z (angstrom)
      1     Pa    -0.29712861    -0.15634582     0.57584897       adf.R=2.200
      2      O     1.66479841     1.25191207     1.09697435       adf.R=1.517
      3      O    -0.41554163     0.83057923    -1.74205801       adf.R=1.517
      4      O    -1.03897684     1.52259948     1.53780395       adf.R=1.517
      5      H     2.57216628     0.93464934     1.03123350       adf.R=1.350
      6      O    -1.17195016    -2.26858657    -0.54301736       adf.R=1.517
      7      H    -1.26976086    -2.47298453    -1.47942460       adf.R=1.350
      8      H    -0.95874395    -3.10347806    -0.11054641       adf.R=1.350
      9      H     1.63477209     1.94566760     1.76455372       adf.R=1.350
     10      O    -0.08747048    -1.28741612     1.99719511       adf.R=1.517
     11     Cl     1.84203979    -1.04164277    -0.85023769       adf.R=1.725
     12      H    -1.08933755     0.57608115    -2.38440623       adf.R=1.350
     13      H     0.41639096     0.40361785    -2.00815116       adf.R=1.350
     14      O    -2.76503521    -0.39790182     0.53811827       adf.R=1.517
     15      H    -3.20981743    -1.22607485     0.32737600       adf.R=1.350
     16      H    -3.34706296     0.12201413     1.10207266       adf.R=1.350
     17      H    -1.26165832     1.91313341     2.38830566       adf.R=1.350
 
Total System Charge             1.00000
Bonding info available!
 
 *** GO1_GOStep7 ***

 SOLVATION
-------------------------------------------

  The Delley construction of COSMO surface surface is calculated

       Division Level for Surface Triangles (NDIV)                  3
       Final Division Level for Triangles (NFDIV)                   1
       Radius of the Solvent (RSOL)                           1.93000 angstr
  Dielectric Constant (EPSL)                                 78.39000

       COSMO equation is solved iteratively-               conjugate-gradient

       Maximun of Iterations for Charges (NCIX)                  1000
       Criterion for Charge convergence (CCNV)                1.0E-08

  COSMO charges included variationally in SCF

       COSMO included at every SCF cycle

  Geometry-dependent empirical factor                         0.00000

  C-Matrix calculated in cspmtx

  In cspmtx, C-Matrix calculated using fitted potential

-------------------------------------------



 -------------------------------------------
  COSMO surface
  Area             =          635.885
  Volume           =         1154.139
  Number of Points =         1573
 -------------------------------------------
 
 RIHartreeFock Dependency: number of modified vectors:          10
 cosmo_calcen: 0.5 (esolb+esolc) (Hartrees) =   -0.123548

 Solvation energy (screening term,uncorrected) =    -77.527426 kcal/mol

 Solvation energy (dispersion and cavitation terms) =      1.189055 kcal/mol
 Solvation Energy Contributions (Hartrees)
          esola   esolb+esolc
     0.12354780   -0.24709561
 esol last cycle   -0.12354780
  
 Hartree-Fock exchange energy:   -546.349603094276     
 cosmo_calcen: 0.5 (esolb+esolc) (Hartrees) =   -0.123548

 Solvation energy (screening term,uncorrected) =    -77.527427 kcal/mol

 Solvation energy (dispersion and cavitation terms) =      1.189055 kcal/mol
 Solvation Energy Contributions (Hartrees)
          esola   esolb+esolc
     0.12354781   -0.24709561
 esol last cycle   -0.12354781

 Energy gradients wrt nuclear displacements
 ==========================================

     Atom      Cartesian (a.u./angstrom)
                 X         Y         Z
 ----------------------------------------
     1 Pa    0.006910 -0.003556 -0.001843
     2 O     0.000534  0.001520 -0.000460
     3 O     0.000437  0.006586 -0.015657
     4 O    -0.000735 -0.001117 -0.000126
     5 H    -0.000167 -0.000573  0.000403
     6 O     0.000220  0.001291 -0.002646
     7 H    -0.001603 -0.001526  0.000515
     8 H    -0.000005 -0.000170 -0.000121
     9 H    -0.000152  0.000416 -0.000582
    10 O    -0.002366  0.001349  0.001132
    11 Cl   -0.001700  0.000691 -0.000559
    12 H     0.000186 -0.002535  0.002520
    13 H    -0.001784 -0.001611  0.014932
    14 O    -0.000325  0.000024  0.002146
    15 H     0.000050  0.000171 -0.000511
    16 H     0.000035 -0.000390  0.000420
    17 H     0.000466 -0.000568  0.000438
 ----------------------------------------
 Mulliken charges used for AMS results%charges...

 dE(predicted):    -0.29876E-03, dE(actual):    -0.59415E-03, Trust radius:    1.000000, all in a.u.
 
----------------------------------------------------------------------
Geometry Convergence after Step   7       (Hartree/Angstrom,Angstrom)
----------------------------------------------------------------------
current energy                               -4.25463675 Hartree
energy change                      -0.00059415     0.00001700    F
constrained gradient max            0.01566155     0.00010000    F
constrained gradient rms            0.00352052     0.00006667    F
gradient max                        0.01566155
gradient rms                        0.00352052
cart. step max                      0.21419415     0.00100000    F
cart. step rms                      0.05953211     0.00066667    F
 
 
--------
Geometry
--------
Formula: H9ClO6Pa
Atoms
  Index Symbol   x (angstrom)   y (angstrom)   z (angstrom)
      1     Pa    -0.29766495    -0.17617490     0.59024699       adf.R=2.200
      2      O     1.67371032     1.20581170     1.11982386       adf.R=1.517
      3      O    -0.47553702     0.81283795    -1.68503550       adf.R=1.517
      4      O    -1.03762732     1.52520191     1.51710525       adf.R=1.517
      5      H     2.58242838     0.90210006     1.01718487       adf.R=1.350
      6      O    -1.14440721    -2.32839715    -0.46679070       adf.R=1.517
      7      H    -1.15329768    -2.54444353    -1.40568849       adf.R=1.350
      8      H    -0.89041530    -3.13654120    -0.00701340       adf.R=1.350
      9      H     1.65732824     1.86249551     1.82491728       adf.R=1.350
     10      O    -0.06886474    -1.33205042     1.98954696       adf.R=1.517
     11     Cl     1.84557178    -0.99506175    -0.91655373       adf.R=1.725
     12      H    -1.17113053     0.79027531    -2.35326102       adf.R=1.350
     13      H     0.31024803     0.38893503    -2.07411894       adf.R=1.350
     14      O    -2.76636465    -0.37175355     0.47410759       adf.R=1.517
     15      H    -3.21905765    -1.20061022     0.28314751       adf.R=1.350
     16      H    -3.35824338     0.18593236     0.98931084       adf.R=1.350
     17      H    -1.26899280     1.95726663     2.34471140       adf.R=1.350
 
Total System Charge             1.00000
Bonding info available!
 
 *** GO1_GOStep8 ***

 SOLVATION
-------------------------------------------

  The Delley construction of COSMO surface surface is calculated

       Division Level for Surface Triangles (NDIV)                  3
       Final Division Level for Triangles (NFDIV)                   1
       Radius of the Solvent (RSOL)                           1.93000 angstr
  Dielectric Constant (EPSL)                                 78.39000

       COSMO equation is solved iteratively-               conjugate-gradient

       Maximun of Iterations for Charges (NCIX)                  1000
       Criterion for Charge convergence (CCNV)                1.0E-08

  COSMO charges included variationally in SCF

       COSMO included at every SCF cycle

  Geometry-dependent empirical factor                         0.00000

  C-Matrix calculated in cspmtx

  In cspmtx, C-Matrix calculated using fitted potential

-------------------------------------------



 -------------------------------------------
  COSMO surface
  Area             =          638.584
  Volume           =         1157.571
  Number of Points =         1594
 -------------------------------------------
 
 RIHartreeFock Dependency: number of modified vectors:          10
 cosmo_calcen: 0.5 (esolb+esolc) (Hartrees) =   -0.122672

 Solvation energy (screening term,uncorrected) =    -76.977576 kcal/mol

 Solvation energy (dispersion and cavitation terms) =      1.194103 kcal/mol
 Solvation Energy Contributions (Hartrees)
          esola   esolb+esolc
     0.12267156   -0.24534313
 esol last cycle   -0.12267156
  
 Hartree-Fock exchange energy:   -546.347388880148     
 cosmo_calcen: 0.5 (esolb+esolc) (Hartrees) =   -0.122672

 Solvation energy (screening term,uncorrected) =    -76.977566 kcal/mol

 Solvation energy (dispersion and cavitation terms) =      1.194103 kcal/mol
 Solvation Energy Contributions (Hartrees)
          esola   esolb+esolc
     0.12267155   -0.24534309
 esol last cycle   -0.12267155

 Energy gradients wrt nuclear displacements
 ==========================================

     Atom      Cartesian (a.u./angstrom)
                 X         Y         Z
 ----------------------------------------
     1 Pa    0.003170 -0.002349  0.002311
     2 O    -0.000760 -0.000803 -0.002933
     3 O    -0.005525  0.008129 -0.002745
     4 O    -0.001840  0.001360 -0.000175
     5 H     0.000346  0.000542  0.000813
     6 O    -0.000627 -0.001557 -0.001631
     7 H    -0.000848 -0.000441  0.000411
     8 H     0.000341  0.000679  0.000142
     9 H     0.000170  0.000279  0.000081
    10 O    -0.001376 -0.000950 -0.000549
    11 Cl    0.002266  0.001201 -0.002324
    12 H     0.003307 -0.002282 -0.001780
    13 H     0.002070 -0.004920  0.006173
    14 O    -0.002152  0.001917  0.002158
    15 H     0.000563 -0.000265 -0.000391
    16 H     0.000284 -0.000063  0.000029
    17 H     0.000610 -0.000477  0.000410
 ----------------------------------------
 Mulliken charges used for AMS results%charges...

 dE(predicted):    -0.21900E-02, dE(actual):    -0.23697E-02, Trust radius:    1.000000, all in a.u.
 
----------------------------------------------------------------------
Geometry Convergence after Step   8       (Hartree/Angstrom,Angstrom)
----------------------------------------------------------------------
current energy                               -4.25700642 Hartree
energy change                      -0.00236967     0.00001700    F
constrained gradient max            0.00811745     0.00010000    F
constrained gradient rms            0.00227434     0.00006667    F
gradient max                        0.00811745
gradient rms                        0.00227434
cart. step max                      0.11996788     0.00100000    F
cart. step rms                      0.03919238     0.00066667    F
 
 
--------
Geometry
--------
Formula: H9ClO6Pa
Atoms
  Index Symbol   x (angstrom)   y (angstrom)   z (angstrom)
      1     Pa    -0.29773515    -0.18307740     0.59490334       adf.R=2.200
      2      O     1.68284780     1.17481848     1.13905417       adf.R=1.517
      3      O    -0.52628402     0.80416626    -1.64979283       adf.R=1.517
      4      O    -1.03182794     1.53328201     1.49897631       adf.R=1.517
      5      H     2.59015200     0.87584560     1.01221106       adf.R=1.350
      6      O    -1.12445153    -2.35864976    -0.42231283       adf.R=1.517
      7      H    -1.06875475    -2.57812450    -1.35903640       adf.R=1.350
      8      H    -0.84877244    -3.14921135     0.05543716       adf.R=1.350
      9      H     1.67726907     1.80354394     1.86937828       adf.R=1.350
     10      O    -0.05325415    -1.34863041     1.98431432       adf.R=1.517
     11     Cl     1.84152591    -0.98298691    -0.95090204       adf.R=1.725
     12      H    -1.22586147     0.91024318    -2.30477067       adf.R=1.350
     13      H     0.21759469     0.38546240    -2.11472525       adf.R=1.350
     14      O    -2.76323514    -0.36167045     0.42509847       adf.R=1.517
     15      H    -3.21994345    -1.19168107     0.24923956       adf.R=1.350
     16      H    -3.36263493     0.21886133     0.90519353       adf.R=1.350
     17      H    -1.26895097     1.99363238     2.30937458       adf.R=1.350
 
Total System Charge             1.00000
Bonding info available!
 
 *** GO1_GOStep9 ***

 SOLVATION
-------------------------------------------

  The Delley construction of COSMO surface surface is calculated

       Division Level for Surface Triangles (NDIV)                  3
       Final Division Level for Triangles (NFDIV)                   1
       Radius of the Solvent (RSOL)                           1.93000 angstr
  Dielectric Constant (EPSL)                                 78.39000

       COSMO equation is solved iteratively-               conjugate-gradient

       Maximun of Iterations for Charges (NCIX)                  1000
       Criterion for Charge convergence (CCNV)                1.0E-08

  COSMO charges included variationally in SCF

       COSMO included at every SCF cycle

  Geometry-dependent empirical factor                         0.00000

  C-Matrix calculated in cspmtx

  In cspmtx, C-Matrix calculated using fitted potential

-------------------------------------------



 -------------------------------------------
  COSMO surface
  Area             =          641.367
  Volume           =         1160.441
  Number of Points =         1596
 -------------------------------------------
 
 RIHartreeFock Dependency: number of modified vectors:          10
 cosmo_calcen: 0.5 (esolb+esolc) (Hartrees) =   -0.122771

 Solvation energy (screening term,uncorrected) =    -77.040242 kcal/mol

 Solvation energy (dispersion and cavitation terms) =      1.199307 kcal/mol
 Solvation Energy Contributions (Hartrees)
          esola   esolb+esolc
     0.12277143   -0.24554285
 esol last cycle   -0.12277143
  
 Hartree-Fock exchange energy:   -546.349014611462     
 cosmo_calcen: 0.5 (esolb+esolc) (Hartrees) =   -0.122771

 Solvation energy (screening term,uncorrected) =    -77.040228 kcal/mol

 Solvation energy (dispersion and cavitation terms) =      1.199307 kcal/mol
 Solvation Energy Contributions (Hartrees)
          esola   esolb+esolc
     0.12277141   -0.24554281
 esol last cycle   -0.12277141

 Energy gradients wrt nuclear displacements
 ==========================================

     Atom      Cartesian (a.u./angstrom)
                 X         Y         Z
 ----------------------------------------
     1 Pa   -0.000248 -0.000585  0.001836
     2 O    -0.001532 -0.001473 -0.003263
     3 O    -0.006065  0.007692  0.005591
     4 O    -0.001575  0.002540 -0.000377
     5 H     0.000621  0.000918  0.000782
     6 O    -0.000851 -0.001825  0.000258
     7 H    -0.000153  0.000276  0.000295
     8 H     0.000461  0.000514 -0.000020
     9 H     0.000035  0.000011  0.000321
    10 O    -0.000640 -0.002252 -0.001925
    11 Cl    0.004904  0.000595 -0.003202
    12 H     0.007124 -0.003250 -0.004082
    13 H    -0.001466 -0.004507  0.002288
    14 O    -0.002277  0.001998  0.001442
    15 H     0.000625 -0.000319 -0.000127
    16 H     0.000391  0.000140 -0.000177
    17 H     0.000644 -0.000473  0.000361
 ----------------------------------------
 Mulliken charges used for AMS results%charges...

 dE(predicted):    -0.52804E-03, dE(actual):    -0.75341E-03, Trust radius:    1.000000, all in a.u.
 
----------------------------------------------------------------------
Geometry Convergence after Step   9       (Hartree/Angstrom,Angstrom)
----------------------------------------------------------------------
current energy                               -4.25775982 Hartree
energy change                      -0.00075341     0.00001700    F
constrained gradient max            0.00767902     0.00010000    F
constrained gradient rms            0.00252115     0.00006667    F
gradient max                        0.00767902
gradient rms                        0.00252115
cart. step max                      0.06161107     0.00100000    F
cart. step rms                      0.02421260     0.00066667    F
 
 
--------
Geometry
--------
Formula: H9ClO6Pa
Atoms
  Index Symbol   x (angstrom)   y (angstrom)   z (angstrom)
      1     Pa    -0.29570380    -0.18064863     0.59508341       adf.R=2.200
      2      O     1.69400893     1.15598417     1.15592870       adf.R=1.517
      3      O    -0.55947250     0.80047228    -1.63334122       adf.R=1.517
      4      O    -1.02582161     1.54402246     1.48470319       adf.R=1.517
      5      H     2.59818410     0.85328614     1.01661319       adf.R=1.350
      6      O    -1.11030768    -2.36621614    -0.40485152       adf.R=1.517
      7      H    -1.01667347    -2.58626458    -1.33875230       adf.R=1.350
      8      H    -0.83150532    -3.14903425     0.08406774       adf.R=1.350
      9      H     1.69663945     1.76784271     1.90021717       adf.R=1.350
     10      O    -0.04059368    -1.34176530     1.98708072       adf.R=1.517
     11     Cl     1.83580572    -0.99340532    -0.95885559       adf.R=1.725
     12      H    -1.28013915     0.95848722    -2.25344470       adf.R=1.350
     13      H     0.15598361     0.38945506    -2.14278817       adf.R=1.350
     14      O    -2.75706935    -0.36246111     0.39193518       adf.R=1.517
     15      H    -3.21369722    -1.19425984     0.22467472       adf.R=1.350
     16      H    -3.36366836     0.22831913     0.85023189       adf.R=1.350
     17      H    -1.26828614     2.02200974     2.28313834       adf.R=1.350
 
Total System Charge             1.00000
Bonding info available!
 
 *** GO1_GOStep10 ***

 SOLVATION
-------------------------------------------

  The Delley construction of COSMO surface surface is calculated

       Division Level for Surface Triangles (NDIV)                  3
       Final Division Level for Triangles (NFDIV)                   1
       Radius of the Solvent (RSOL)                           1.93000 angstr
  Dielectric Constant (EPSL)                                 78.39000

       COSMO equation is solved iteratively-               conjugate-gradient

       Maximun of Iterations for Charges (NCIX)                  1000
       Criterion for Charge convergence (CCNV)                1.0E-08

  COSMO charges included variationally in SCF

       COSMO included at every SCF cycle

  Geometry-dependent empirical factor                         0.00000

  C-Matrix calculated in cspmtx

  In cspmtx, C-Matrix calculated using fitted potential

-------------------------------------------



 -------------------------------------------
  COSMO surface
  Area             =          640.777
  Volume           =         1159.524
  Number of Points =         1593
 -------------------------------------------
 
 RIHartreeFock Dependency: number of modified vectors:          10
 cosmo_calcen: 0.5 (esolb+esolc) (Hartrees) =   -0.123238

 Solvation energy (screening term,uncorrected) =    -77.332843 kcal/mol

 Solvation energy (dispersion and cavitation terms) =      1.198204 kcal/mol
 Solvation Energy Contributions (Hartrees)
          esola   esolb+esolc
     0.12323772   -0.24647543
 esol last cycle   -0.12323772
  
 Hartree-Fock exchange energy:   -546.351473843730     
 cosmo_calcen: 0.5 (esolb+esolc) (Hartrees) =   -0.123238

 Solvation energy (screening term,uncorrected) =    -77.332847 kcal/mol

 Solvation energy (dispersion and cavitation terms) =      1.198204 kcal/mol
 Solvation Energy Contributions (Hartrees)
          esola   esolb+esolc
     0.12323772   -0.24647545
 esol last cycle   -0.12323772

 Energy gradients wrt nuclear displacements
 ==========================================

     Atom      Cartesian (a.u./angstrom)
                 X         Y         Z
 ----------------------------------------
     1 Pa   -0.002954  0.001232  0.000443
     2 O    -0.001523 -0.001407 -0.002452
     3 O    -0.004702  0.005852  0.006071
     4 O    -0.000789  0.002509 -0.000596
     5 H     0.000554  0.000908  0.000474
     6 O    -0.000789 -0.001171  0.001324
     7 H     0.000136  0.000594 -0.000190
     8 H     0.000504  0.000327  0.000116
     9 H    -0.000261 -0.000226  0.000176
    10 O     0.000171 -0.002417 -0.002448
    11 Cl    0.005890 -0.000525 -0.003339
    12 H     0.006935 -0.003154 -0.003658
    13 H    -0.002927 -0.003382  0.003351
    14 O    -0.001568  0.001258  0.000512
    15 H     0.000378 -0.000126  0.000134
    16 H     0.000335  0.000209 -0.000272
    17 H     0.000610 -0.000481  0.000353
 ----------------------------------------
 Mulliken charges used for AMS results%charges...

 dE(predicted):    -0.31072E-03, dE(actual):    -0.50288E-03, Trust radius:    1.000000, all in a.u.
 
----------------------------------------------------------------------
Geometry Convergence after Step  10       (Hartree/Angstrom,Angstrom)
----------------------------------------------------------------------
current energy                               -4.25826270 Hartree
energy change                      -0.00050288     0.00001700    F
constrained gradient max            0.00687725     0.00010000    F
constrained gradient rms            0.00239814     0.00006667    F
gradient max                        0.00687725
gradient rms                        0.00239814
cart. step max                      0.14672398     0.00100000    F
cart. step rms                      0.05605079     0.00066667    F
 
 
--------
Geometry
--------
Formula: H9ClO6Pa
Atoms
  Index Symbol   x (angstrom)   y (angstrom)   z (angstrom)
      1     Pa    -0.28752141    -0.16648019     0.59102881       adf.R=2.200
      2      O     1.72705588     1.11352141     1.19885668       adf.R=1.517
      3      O    -0.62921380     0.79386197    -1.60684022       adf.R=1.517
      4      O    -1.01555043     1.57372762     1.44519543       adf.R=1.517
      5      H     2.62035029     0.79060613     1.03789529       adf.R=1.350
      6      O    -1.07607813    -2.36967314    -0.38031683       adf.R=1.517
      7      H    -0.90606757    -2.59291924    -1.30302058       adf.R=1.350
      8      H    -0.80869724    -3.14059068     0.13386251       adf.R=1.350
      9      H     1.75060573     1.68958840     1.97038789       adf.R=1.350
     10      O    -0.00951207    -1.29856234     2.00473927       adf.R=1.517
     11     Cl     1.81471905    -1.03134863    -0.96511066       adf.R=1.725
     12      H    -1.41566895     1.04025579    -2.10672072       adf.R=1.350
     13      H     0.01531914     0.40551356    -2.21072181       adf.R=1.350
     14      O    -2.73675412    -0.37360146     0.31953575       adf.R=1.517
     15      H    -3.18880930    -1.21063582     0.16649215       adf.R=1.350
     16      H    -3.36193720     0.23109972     0.73345736       adf.R=1.350
     17      H    -1.27455633     2.09146061     2.21292043       adf.R=1.350
 
Total System Charge             1.00000
Bonding info available!
 
 *** GO1_GOStep11 ***

 SOLVATION
-------------------------------------------

  The Delley construction of COSMO surface surface is calculated

       Division Level for Surface Triangles (NDIV)                  3
       Final Division Level for Triangles (NFDIV)                   1
       Radius of the Solvent (RSOL)                           1.93000 angstr
  Dielectric Constant (EPSL)                                 78.39000

       COSMO equation is solved iteratively-               conjugate-gradient

       Maximun of Iterations for Charges (NCIX)                  1000
       Criterion for Charge convergence (CCNV)                1.0E-08

  COSMO charges included variationally in SCF

       COSMO included at every SCF cycle

  Geometry-dependent empirical factor                         0.00000

  C-Matrix calculated in cspmtx

  In cspmtx, C-Matrix calculated using fitted potential

-------------------------------------------



 -------------------------------------------
  COSMO surface
  Area             =          639.974
  Volume           =         1159.027
  Number of Points =         1582
 -------------------------------------------
 
 RIHartreeFock Dependency: number of modified vectors:          10
 cosmo_calcen: 0.5 (esolb+esolc) (Hartrees) =   -0.124419

 Solvation energy (screening term,uncorrected) =    -78.074244 kcal/mol

 Solvation energy (dispersion and cavitation terms) =      1.196702 kcal/mol
 Solvation Energy Contributions (Hartrees)
          esola   esolb+esolc
     0.12441921   -0.24883843
 esol last cycle   -0.12441921
  
 Hartree-Fock exchange energy:   -546.358162826941     
 cosmo_calcen: 0.5 (esolb+esolc) (Hartrees) =   -0.124419

 Solvation energy (screening term,uncorrected) =    -78.074225 kcal/mol

 Solvation energy (dispersion and cavitation terms) =      1.196702 kcal/mol
 Solvation Energy Contributions (Hartrees)
          esola   esolb+esolc
     0.12441918   -0.24883837
 esol last cycle   -0.12441918

 Energy gradients wrt nuclear displacements
 ==========================================

     Atom      Cartesian (a.u./angstrom)
                 X         Y         Z
 ----------------------------------------
     1 Pa   -0.009140  0.006353 -0.004348
     2 O    -0.001152 -0.002010  0.000132
     3 O    -0.000173  0.000678  0.000974
     4 O     0.001077  0.001112 -0.001156
     5 H     0.000194  0.000573 -0.000528
     6 O    -0.000024  0.001075  0.002130
     7 H     0.000399  0.001239 -0.000711
     8 H     0.000458 -0.000063  0.000402
     9 H    -0.000894 -0.000445  0.000039
    10 O     0.002670 -0.001647 -0.002562
    11 Cl    0.005946 -0.003117 -0.002734
    12 H     0.001661 -0.000891  0.000434
    13 H    -0.002198 -0.002135  0.009027
    14 O     0.001362 -0.001001 -0.001868
    15 H    -0.000550  0.000284  0.000726
    16 H    -0.000015  0.000395 -0.000340
    17 H     0.000379 -0.000401  0.000383
 ----------------------------------------
 Mulliken charges used for AMS results%charges...

 dE(predicted):    -0.78973E-03, dE(actual):    -0.81885E-03, Trust radius:    1.000000, all in a.u.
 
----------------------------------------------------------------------
Geometry Convergence after Step  11       (Hartree/Angstrom,Angstrom)
----------------------------------------------------------------------
current energy                               -4.25908155 Hartree
energy change                      -0.00081885     0.00001700    F
constrained gradient max            0.00913029     0.00010000    F
constrained gradient rms            0.00256186     0.00006667    F
gradient max                        0.00913029
gradient rms                        0.00256186
cart. step max                      0.02316479     0.00100000    F
cart. step rms                      0.00755454     0.00066667    F
 
 
--------
Geometry
--------
Formula: H9ClO6Pa
Atoms
  Index Symbol   x (angstrom)   y (angstrom)   z (angstrom)
      1     Pa    -0.28312846    -0.16353460     0.58978202       adf.R=2.200
      2      O     1.73487382     1.11125170     1.20574732       adf.R=1.517
      3      O    -0.63080802     0.79365880    -1.60914119       adf.R=1.517
      4      O    -1.01771815     1.57588853     1.43858216       adf.R=1.517
      5      H     2.62524698     0.77915679     1.04774145       adf.R=1.350
      6      O    -1.07211609    -2.36733314    -0.38323143       adf.R=1.517
      7      H    -0.89977712    -2.59586882    -1.30409184       adf.R=1.350
      8      H    -0.81773666    -3.13995427     0.13473896       adf.R=1.350
      9      H     1.76214288     1.68605389     1.97810782       adf.R=1.350
     10      O    -0.00857252    -1.28344926     2.01440162       adf.R=1.517
     11     Cl     1.80726882    -1.03331662    -0.96850386       adf.R=1.725
     12      H    -1.43358866     1.04040452    -2.08355593       adf.R=1.350
     13      H     0.00604826     0.41045585    -2.22533586       adf.R=1.350
     14      O    -2.73145681    -0.37668321     0.31627920       adf.R=1.517
     15      H    -3.18082278    -1.21429037     0.15844584       adf.R=1.350
     16      H    -3.35950551     0.22460307     0.73091854       adf.R=1.350
     17      H    -1.28266646     2.09878087     2.20075592       adf.R=1.350
 
Total System Charge             1.00000
Bonding info available!
 
 *** GO1_GOStep12 ***

 SOLVATION
-------------------------------------------

  The Delley construction of COSMO surface surface is calculated

       Division Level for Surface Triangles (NDIV)                  3
       Final Division Level for Triangles (NFDIV)                   1
       Radius of the Solvent (RSOL)                           1.93000 angstr
  Dielectric Constant (EPSL)                                 78.39000

       COSMO equation is solved iteratively-               conjugate-gradient

       Maximun of Iterations for Charges (NCIX)                  1000
       Criterion for Charge convergence (CCNV)                1.0E-08

  COSMO charges included variationally in SCF

       COSMO included at every SCF cycle

  Geometry-dependent empirical factor                         0.00000

  C-Matrix calculated in cspmtx

  In cspmtx, C-Matrix calculated using fitted potential

-------------------------------------------



 -------------------------------------------
  COSMO surface
  Area             =          638.433
  Volume           =         1155.513
  Number of Points =         1580
 -------------------------------------------
 
 RIHartreeFock Dependency: number of modified vectors:          10
 cosmo_calcen: 0.5 (esolb+esolc) (Hartrees) =   -0.124316

 Solvation energy (screening term,uncorrected) =    -78.009706 kcal/mol

 Solvation energy (dispersion and cavitation terms) =      1.193821 kcal/mol
 Solvation Energy Contributions (Hartrees)
          esola   esolb+esolc
     0.12431637   -0.24863273
 esol last cycle   -0.12431637
  
 Hartree-Fock exchange energy:   -546.357923040318     
 cosmo_calcen: 0.5 (esolb+esolc) (Hartrees) =   -0.124316

 Solvation energy (screening term,uncorrected) =    -78.009725 kcal/mol

 Solvation energy (dispersion and cavitation terms) =      1.193821 kcal/mol
 Solvation Energy Contributions (Hartrees)
          esola   esolb+esolc
     0.12431640   -0.24863279
 esol last cycle   -0.12431640

 Energy gradients wrt nuclear displacements
 ==========================================

     Atom      Cartesian (a.u./angstrom)
                 X         Y         Z
 ----------------------------------------
     1 Pa   -0.008991  0.006611 -0.004795
     2 O    -0.000813 -0.001932  0.000587
     3 O     0.000204  0.000371 -0.000347
     4 O     0.001070  0.000448 -0.001099
     5 H    -0.000077  0.000397 -0.000570
     6 O     0.000275  0.001214  0.001531
     7 H     0.000110  0.000940 -0.000628
     8 H     0.000413  0.000163  0.000305
     9 H    -0.000774 -0.000243 -0.000009
    10 O     0.002875 -0.001172 -0.001839
    11 Cl    0.004729 -0.003030 -0.002515
    12 H    -0.000906  0.000026  0.001657
    13 H     0.000612 -0.002949  0.008765
    14 O     0.001734 -0.001198 -0.001922
    15 H    -0.000652  0.000275  0.000754
    16 H    -0.000108  0.000400 -0.000303
    17 H     0.000300 -0.000321  0.000427
 ----------------------------------------
 Mulliken charges used for AMS results%charges...

 dE(predicted):    -0.13395E-03, dE(actual):    -0.22140E-03, Trust radius:    1.000000, all in a.u.
 
----------------------------------------------------------------------
Geometry Convergence after Step  12       (Hartree/Angstrom,Angstrom)
----------------------------------------------------------------------
current energy                               -4.25930295 Hartree
energy change                      -0.00022140     0.00001700    F
constrained gradient max            0.00898258     0.00010000    F
constrained gradient rms            0.00247291     0.00006667    F
gradient max                        0.00898258
gradient rms                        0.00247291
cart. step max                      0.06491204     0.00100000    F
cart. step rms                      0.02548590     0.00066667    F
 
 
--------
Geometry
--------
Formula: H9ClO6Pa
Atoms
  Index Symbol   x (angstrom)   y (angstrom)   z (angstrom)
      1     Pa    -0.26867565    -0.16054854     0.58641055       adf.R=2.200
      2      O     1.75971263     1.09999951     1.22634034       adf.R=1.517
      3      O    -0.64098119     0.79337167    -1.61018262       adf.R=1.517
      4      O    -1.03013631     1.57647860     1.41362505       adf.R=1.517
      5      H     2.64055846     0.74007024     1.07583315       adf.R=1.350
      6      O    -1.05750247    -2.37377596    -0.38039771       adf.R=1.517
      7      H    -0.86555232    -2.62409100    -1.29112849       adf.R=1.350
      8      H    -0.84328559    -3.14632568     0.15505015       adf.R=1.350
      9      H     1.80068040     1.66448337     2.00584572       adf.R=1.350
     10      O    -0.00791640    -1.24408329     2.04312641       adf.R=1.517
     11     Cl     1.78159697    -1.01731388    -0.99931143       adf.R=1.725
     12      H    -1.46978899     1.07627023    -2.01864389       adf.R=1.350
     13      H    -0.03943721     0.42913520    -2.27447553       adf.R=1.350
     14      O    -2.71564915    -0.38083725     0.30583433       adf.R=1.517
     15      H    -3.15788442    -1.21825996     0.12787993       adf.R=1.350
     16      H    -3.35099188     0.21050288     0.72349634       adf.R=1.350
     17      H    -1.31706334     2.12074758     2.15233846       adf.R=1.350
 
Total System Charge             1.00000
Bonding info available!
 
 *** GO1_GOStep13 ***

 SOLVATION
-------------------------------------------

  The Delley construction of COSMO surface surface is calculated

       Division Level for Surface Triangles (NDIV)                  3
       Final Division Level for Triangles (NFDIV)                   1
       Radius of the Solvent (RSOL)                           1.93000 angstr
  Dielectric Constant (EPSL)                                 78.39000

       COSMO equation is solved iteratively-               conjugate-gradient

       Maximun of Iterations for Charges (NCIX)                  1000
       Criterion for Charge convergence (CCNV)                1.0E-08

  COSMO charges included variationally in SCF

       COSMO included at every SCF cycle

  Geometry-dependent empirical factor                         0.00000

  C-Matrix calculated in cspmtx

  In cspmtx, C-Matrix calculated using fitted potential

-------------------------------------------



 -------------------------------------------
  COSMO surface
  Area             =          638.418
  Volume           =         1154.641
  Number of Points =         1576
 -------------------------------------------
 
 RIHartreeFock Dependency: number of modified vectors:          10
 cosmo_calcen: 0.5 (esolb+esolc) (Hartrees) =   -0.123497

 Solvation energy (screening term,uncorrected) =    -77.495806 kcal/mol

 Solvation energy (dispersion and cavitation terms) =      1.193791 kcal/mol
 Solvation Energy Contributions (Hartrees)
          esola   esolb+esolc
     0.12349741   -0.24699483
 esol last cycle   -0.12349741
  
 Hartree-Fock exchange energy:   -546.356991990660     
 cosmo_calcen: 0.5 (esolb+esolc) (Hartrees) =   -0.123497

 Solvation energy (screening term,uncorrected) =    -77.495802 kcal/mol

 Solvation energy (dispersion and cavitation terms) =      1.193791 kcal/mol
 Solvation Energy Contributions (Hartrees)
          esola   esolb+esolc
     0.12349741   -0.24699482
 esol last cycle   -0.12349741

 Energy gradients wrt nuclear displacements
 ==========================================

     Atom      Cartesian (a.u./angstrom)
                 X         Y         Z
 ----------------------------------------
     1 Pa   -0.006993  0.006045 -0.006027
     2 O    -0.000375 -0.001675  0.001360
     3 O     0.001418 -0.000308  0.000938
     4 O     0.000061 -0.001050 -0.000717
     5 H    -0.000336  0.000066 -0.000403
     6 O     0.000668  0.001229 -0.000267
     7 H    -0.000436  0.000072  0.000381
     8 H     0.000360  0.000408 -0.000438
     9 H    -0.000077  0.000137 -0.000063
    10 O     0.002894  0.000145  0.000002
    11 Cl    0.000998 -0.001710 -0.001971
    12 H    -0.005480  0.001718  0.003153
    13 H     0.005828 -0.004964  0.004880
    14 O     0.002180 -0.000540 -0.001577
    15 H    -0.000592  0.000047  0.000558
    16 H    -0.000230  0.000492 -0.000256
    17 H     0.000112 -0.000111  0.000446
 ----------------------------------------
 Mulliken charges used for AMS results%charges...

 dE(predicted):    -0.38095E-03, dE(actual):    -0.54250E-03, Trust radius:    1.000000, all in a.u.
 
----------------------------------------------------------------------
Geometry Convergence after Step  13       (Hartree/Angstrom,Angstrom)
----------------------------------------------------------------------
current energy                               -4.25984545 Hartree
energy change                      -0.00054250     0.00001700    F
constrained gradient max            0.00698576     0.00010000    F
constrained gradient rms            0.00236215     0.00006667    F
gradient max                        0.00698576
gradient rms                        0.00236215
cart. step max                      0.03287669     0.00100000    F
cart. step rms                      0.01371990     0.00066667    F
 
 
--------
Geometry
--------
Formula: H9ClO6Pa
Atoms
  Index Symbol   x (angstrom)   y (angstrom)   z (angstrom)
      1     Pa    -0.26017937    -0.16263366     0.58361827       adf.R=2.200
      2      O     1.77167155     1.09756837     1.23244128       adf.R=1.517
      3      O    -0.64131663     0.79859513    -1.61278292       adf.R=1.517
      4      O    -1.03735869     1.57271947     1.39975720       adf.R=1.517
      5      H     2.64737481     0.72205191     1.08922753       adf.R=1.350
      6      O    -1.05276065    -2.38258859    -0.37747910       adf.R=1.517
      7      H    -0.85046715    -2.64877158    -1.28146775       adf.R=1.350
      8      H    -0.86744420    -3.15418206     0.17008847       adf.R=1.350
      9      H     1.81895259     1.65615868     2.01602640       adf.R=1.350
     10      O    -0.01473407    -1.22833070     2.05672824       adf.R=1.517
     11     Cl     1.77278761    -1.00003911    -1.01487342       adf.R=1.725
     12      H    -1.47041308     1.10914692    -2.00048757       adf.R=1.350
     13      H    -0.05982810     0.44664539    -2.30186147       adf.R=1.350
     14      O    -2.70874193    -0.38497103     0.30899763       adf.R=1.517
     15      H    -3.14591809    -1.22116716     0.11389711       adf.R=1.350
     16      H    -3.34673250     0.19636802     0.73599789       adf.R=1.350
     17      H    -1.33720857     2.12925372     2.12381296       adf.R=1.350
 
Total System Charge             1.00000
Bonding info available!
 
 *** GO1_GOStep14 ***

 SOLVATION
-------------------------------------------

  The Delley construction of COSMO surface surface is calculated

       Division Level for Surface Triangles (NDIV)                  3
       Final Division Level for Triangles (NFDIV)                   1
       Radius of the Solvent (RSOL)                           1.93000 angstr
  Dielectric Constant (EPSL)                                 78.39000

       COSMO equation is solved iteratively-               conjugate-gradient

       Maximun of Iterations for Charges (NCIX)                  1000
       Criterion for Charge convergence (CCNV)                1.0E-08

  COSMO charges included variationally in SCF

       COSMO included at every SCF cycle

  Geometry-dependent empirical factor                         0.00000

  C-Matrix calculated in cspmtx

  In cspmtx, C-Matrix calculated using fitted potential

-------------------------------------------



 -------------------------------------------
  COSMO surface
  Area             =          638.848
  Volume           =         1154.080
  Number of Points =         1578
 -------------------------------------------
 
 RIHartreeFock Dependency: number of modified vectors:          10
 cosmo_calcen: 0.5 (esolb+esolc) (Hartrees) =   -0.122765

 Solvation energy (screening term,uncorrected) =    -77.035914 kcal/mol

 Solvation energy (dispersion and cavitation terms) =      1.194597 kcal/mol
 Solvation Energy Contributions (Hartrees)
          esola   esolb+esolc
     0.12276453   -0.24552906
 esol last cycle   -0.12276453
  
 Hartree-Fock exchange energy:   -546.355794889193     
 cosmo_calcen: 0.5 (esolb+esolc) (Hartrees) =   -0.122765

 Solvation energy (screening term,uncorrected) =    -77.035915 kcal/mol

 Solvation energy (dispersion and cavitation terms) =      1.194597 kcal/mol
 Solvation Energy Contributions (Hartrees)
          esola   esolb+esolc
     0.12276453   -0.24552906
 esol last cycle   -0.12276453

 Energy gradients wrt nuclear displacements
 ==========================================

     Atom      Cartesian (a.u./angstrom)
                 X         Y         Z
 ----------------------------------------
     1 Pa   -0.004411  0.004530 -0.006509
     2 O    -0.000381 -0.001292  0.001246
     3 O     0.001920 -0.000190  0.003040
     4 O    -0.000942 -0.001239 -0.000122
     5 H    -0.000257 -0.000085 -0.000045
     6 O     0.000365  0.001105 -0.000760
     7 H    -0.000504 -0.000497  0.000331
     8 H     0.000225  0.000212 -0.000532
     9 H     0.000558  0.000322 -0.000100
    10 O     0.002391  0.000576  0.000946
    11 Cl   -0.000903 -0.000412 -0.001458
    12 H    -0.005366  0.001603  0.002433
    13 H     0.006049 -0.005122  0.002099
[...]
     4     O       0.000992  -0.002291  -0.001862
     5     H      -0.030798   0.012663   0.004578
     6     O       0.009922   0.006980  -0.017865
     7     H      -0.110646   0.072641   0.112121
     8     H      -0.046794  -0.185454   0.172515
     9     H       0.001842   0.021784   0.026491
    10     O      -0.000029   0.000033  -0.000061
    11    Cl       0.000019  -0.000019  -0.000018
    12     H      -0.290723   0.615260  -0.053953
    13     H      -0.364909   0.095870   0.533714
    14     O      -0.000183   0.001579   0.000866
    15     H      -0.008810  -0.014466  -0.007303
    16     H       0.011571  -0.009692  -0.006259
    17     H      -0.015388   0.036074   0.028871
 
 Mode:    50      Frequency (cm-1):     3882.0034     Intensity (km/mol):      240.2114
 Index  Atom      ---- Displacements (x/y/z) ----
     1    Pa      -0.000004   0.000001   0.000002
     2     O      -0.036627   0.044916   0.041325
     3     O       0.001427  -0.001472  -0.001088
     4     O      -0.000076   0.000133   0.000100
     5     H       0.620729  -0.253224  -0.093982
     6     O       0.001701   0.001149  -0.003092
     7     H      -0.018902   0.012969   0.019157
     8     H      -0.008250  -0.032748   0.030151
     9     H      -0.037300  -0.461024  -0.564129
    10     O      -0.000000  -0.000013   0.000015
    11    Cl      -0.000013   0.000036   0.000042
    12     H      -0.009377   0.020294  -0.001744
    13     H      -0.012999   0.003599   0.019173
    14     O      -0.000359   0.001354   0.000736
    15     H      -0.006481  -0.010467  -0.005382
    16     H       0.012008  -0.010401  -0.006576
    17     H       0.000558  -0.001732  -0.001587
 
 Mode:    51      Frequency (cm-1):     3896.9048     Intensity (km/mol):      291.1871
 Index  Atom      ---- Displacements (x/y/z) ----
     1    Pa      -0.000001   0.000004   0.000002
     2     O       0.000948  -0.000776  -0.000614
     3     O      -0.000323   0.000458   0.000143
     4     O      -0.000259   0.000651   0.000515
     5     H      -0.015681   0.006432   0.002418
     6     O      -0.001508  -0.001681   0.003137
     7     H       0.014817  -0.009783  -0.014773
     8     H       0.009037   0.037566  -0.034931
     9     H       0.000597   0.005900   0.007318
    10     O       0.000019  -0.000019   0.000035
    11    Cl      -0.000002   0.000004   0.000001
    12     H       0.003235  -0.006737   0.000587
    13     H       0.001885  -0.000379  -0.002795
    14     O      -0.013242   0.061455   0.033886
    15     H      -0.309149  -0.520261  -0.258530
    16     H       0.518971  -0.457869  -0.280993
    17     H       0.004557  -0.009563  -0.007738

 Vibrational polarizability tensor (a.u.):
                  X                   Y                   Z
 X           10413.18832           190.52212          2329.40492
 Y             190.52212          4247.50919         -1228.68656
 Z            2329.40492         -1228.68656          6866.87434

 Isotropic =      7175.9    atomic units

PES point character: Geometry corresponds to a stationary point on the PES with >1 imaginary frequencies.




 ============================
 Statistical Thermal Analysis  ***  ideal gas assumed  ***
 ============================
  
 Pressure:                  1.000000 atm.
 Temperature:             298.150000 K



 Moments of Inertia [amu*bohr^2] and principal axis
 ==================================================

        1671.7357       1994.4632       2374.1852
 ------------------------------------------------
          -0.8713          0.4060          0.2756
           0.2359          0.8391         -0.4902
           0.4303          0.3621          0.8269


 The rotational contribution to the molecular entropy includes
 a term, dependent on the symmetry number sigma. The results 
 reported below were computed using sigma = 1, determined from
 the point group symmetry of the input geometry (NOSYM). 
 If this is not the correct symmetry, try symmetrizing the molecule before
 running the calculation (note: linear molecules should be aligned along one
 of the Cartesian axes).
 Contributions from frequencies below 20 1/cm are not included in vibrational sums.
 Their contributions, if any, are reported separately.


     Temp                                                        Transl      Rotat     Vibrat     Total
     ----                                                        ------      -----     ------     -----

     298.15   Entropy (cal/mol-K):                               43.626     30.449     60.333    134.409
              Nuclear Internal Energy (kcal/mol):                 0.889      0.889     79.463     81.240
              Constant Volume Heat Capacity (cal/mol-K):          2.981      2.981     50.230     56.191
          (c) Constant Volume Heat Capacity (cal/mol-K):          2.981      2.981     45.474     51.435

       Summary of energy terms
                                                   hartree              eV         kcal/mol           kJ/mol
                                      --------------------     -----------       ----------      -----------
      Energy from Engine:               -4.261923431537431       -115.9728         -2674.40        -11189.68
      Nuclear Internal Energy:           0.129464605937372          3.5229            81.24           339.91
  (c) Nuclear Internal Energy:           0.126970604238858          3.4550            79.68           333.36
      Internal Energy U:                -4.132458825600058       -112.4499         -2593.16        -10849.77
      pV/n = RT:                         0.000944186013486          0.0257             0.59             2.48
      Enthalpy H:                       -4.131514639586572       -112.4242         -2592.56        -10847.29
      -T*S:                             -0.063862101010745         -1.7378           -40.07          -167.67
  (c) -T*S:                             -0.062261598969292         -1.6942           -39.07          -163.47
      Gibbs free energy:                -4.195376740597317       -114.1620         -2632.64        -11014.96
 
 
 
  (c) The properties marked with this symbol have been corrected using 'low vibrational frequency free rotor
      interpolation corrections'. For those terms all positive frequencies are used (also ones below 20 1/cm),
      but the contribution to the partition function of small vibrational frequencies is modified as described
      in the following paper:
      S. Grimme, 'Supramolecular Binding Thermodynamics by Dispersion-Corrected Density Functional Theory'
      (Chem. Eur. J. 2012, 18, 9955-9964)
      Configuration: Dampener Frequency          :   100.000 1/cm
                     Dampener Alpha              :     4.000
                     Averaging Moment of Inertia : 1.000E-44 kg m2

--------------
Atomic charges
--------------
  Index   Atom    Charge
      1     Pa    2.5061
      2      O   -0.3913
      3      O   -0.3534
      4      O   -0.6125
      5      H    0.2460
      6      O   -0.4448
      7      H    0.2662
      8      H    0.2707
      9      H    0.2460
     10      O   -0.8047
     11     Cl   -0.5547
     12      H    0.2368
     13      H    0.2349
     14      O   -0.3736
     15      H    0.2307
     16      H    0.2369
     17      H    0.0606


Dipole moment vector    (Debye):    -8.18526435    3.36046451   -1.08152407
              magnitude (Debye):     8.91408821


-----------------------
Molecular orbitals info
-----------------------
n orbitals:              424
n spin:                    1

Note: only printing virtual orbitals with
      energy smaller than HOMO + 100. eV

HOMO (eV):              -8.6743
LUMO (eV):              -2.2615
HOMO-LUMO gap (eV):      6.4129

   Index   Energy (eV)    Occupation
     271       90.9311         0.000       
     270       88.6866         0.000       
     269       88.3300         0.000       
     268       88.0160         0.000       
     267       87.0182         0.000       
     266       86.6397         0.000       
     265       85.5818         0.000       
     264       85.3464         0.000       
     263       84.8649         0.000       
     262       84.3743         0.000       
     261       83.7829         0.000       
     260       83.5922         0.000       
     259       82.8205         0.000       
     258       82.5009         0.000       
     257       80.8740         0.000       
     256       80.0326         0.000       
     255       79.6891         0.000       
     254       78.0212         0.000       
     253       77.6660         0.000       
     252       77.0261         0.000       
     251       76.5948         0.000       
     250       75.4549         0.000       
     249       74.9992         0.000       
     248       74.2299         0.000       
     247       73.6521         0.000       
     246       72.9758         0.000       
     245       72.6237         0.000       
     244       71.2705         0.000       
     243       70.7800         0.000       
     242       70.2758         0.000       
     241       69.9610         0.000       
     240       69.7359         0.000       
     239       69.3193         0.000       
     238       68.0732         0.000       
     237       67.6943         0.000       
     236       64.9199         0.000       
     235       64.1596         0.000       
     234       63.5086         0.000       
     233       62.9444         0.000       
     232       62.6613         0.000       
     231       61.4459         0.000       
     230       60.9979         0.000       
     229       58.9372         0.000       
     228       57.1478         0.000       
     227       56.7414         0.000       
     226       56.2792         0.000       
     225       54.9437         0.000       
     224       54.1941         0.000       
     223       54.0921         0.000       
     222       53.2595         0.000       
     221       52.7508         0.000       
     220       52.0289         0.000       
     219       51.7479         0.000       
     218       50.2198         0.000       
     217       50.0687         0.000       
     216       49.3881         0.000       
     215       49.1688         0.000       
     214       48.1005         0.000       
     213       47.4443         0.000       
     212       47.0849         0.000       
     211       46.2236         0.000       
     210       45.8838         0.000       
     209       45.6195         0.000       
     208       45.2227         0.000       
     207       44.3478         0.000       
     206       43.5831         0.000       
     205       43.4523         0.000       
     204       42.7003         0.000       
     203       41.6794         0.000       
     202       40.6718         0.000       
     201       40.4472         0.000       
     200       40.0801         0.000       
     199       39.4891         0.000       
     198       39.2727         0.000       
     197       39.0473         0.000       
     196       38.6420         0.000       
     195       38.4968         0.000       
     194       38.2164         0.000       
     193       38.1306         0.000       
     192       37.7472         0.000       
     191       37.4087         0.000       
     190       36.9688         0.000       
     189       36.7820         0.000       
     188       36.5456         0.000       
     187       36.1610         0.000       
     186       35.8839         0.000       
     185       35.4855         0.000       
     184       35.4501         0.000       
     183       34.8407         0.000       
     182       34.6324         0.000       
     181       34.5409         0.000       
     180       34.0498         0.000       
     179       33.8176         0.000       
     178       33.5889         0.000       
     177       33.0935         0.000       
     176       31.9531         0.000       
     175       31.5373         0.000       
     174       30.6125         0.000       
     173       29.9399         0.000       
     172       29.2170         0.000       
     171       28.6527         0.000       
     170       28.0395         0.000       
     169       27.0718         0.000       
     168       26.3908         0.000       
     167       26.1901         0.000       
     166       25.5859         0.000       
     165       25.2073         0.000       
     164       24.7940         0.000       
     163       24.7584         0.000       
     162       22.6986         0.000       
     161       22.0961         0.000       
     160       21.3836         0.000       
     159       20.8492         0.000       
     158       20.6449         0.000       
     157       20.2898         0.000       
     156       19.7166         0.000       
     155       19.2665         0.000       
     154       18.3449         0.000       
     153       18.1280         0.000       
     152       17.8710         0.000       
     151       17.6867         0.000       
     150       17.3918         0.000       
     149       16.9930         0.000       
     148       16.6814         0.000       
     147       16.5747         0.000       
     146       16.4209         0.000       
     145       16.1229         0.000       
     144       15.9071         0.000       
     143       15.4924         0.000       
     142       15.2258         0.000       
     141       14.8403         0.000       
     140       14.7614         0.000       
     139       14.6354         0.000       
     138       14.1855         0.000       
     137       14.0506         0.000       
     136       13.7131         0.000       
     135       13.5195         0.000       
     134       13.3378         0.000       
     133       13.1045         0.000       
     132       12.8892         0.000       
     131       12.3734         0.000       
     130       12.0399         0.000       
     129       11.7612         0.000       
     128       11.5756         0.000       
     127       11.3032         0.000       
     126       10.9065         0.000       
     125       10.2817         0.000       
     124       10.0899         0.000       
     123        9.7228         0.000       
     122        9.4485         0.000       
     121        9.2690         0.000       
     120        8.9923         0.000       
     119        8.8587         0.000       
     118        8.2064         0.000       
     117        7.9377         0.000       
     116        7.5390         0.000       
     115        7.1692         0.000       
     114        6.8926         0.000       
     113        6.4418         0.000       
     112        5.5708         0.000       
     111        5.4325         0.000       
     110        5.0494         0.000       
     109        4.8968         0.000       
     108        4.5970         0.000       
     107        4.3518         0.000       
     106        4.0440         0.000       
     105        3.5225         0.000       
     104        3.2811         0.000       
     103        3.0311         0.000       
     102        2.4974         0.000       
     101        2.2530         0.000       
     100        2.1437         0.000       
      99        1.9727         0.000       
      98        1.8608         0.000       
      97        1.7427         0.000       
      96        1.6794         0.000       
      95        1.2697         0.000       
      94        0.9983         0.000       
      93        0.6570         0.000       
      92        0.5747         0.000       
      91        0.3644         0.000       
      90       -0.4951         0.000       
      89       -1.3199         0.000       
      88       -1.7306         0.000       
      87       -1.8176         0.000       
      86       -1.9241         0.000       
      85       -2.1111         0.000       
      84       -2.2252         0.000       
      83       -2.2615         0.000 < LUMO
      82       -8.6743         2.000 < HOMO
      81       -8.8299         2.000       
      80       -9.0499         2.000       
      79       -9.1996         2.000       
      78       -9.8527         2.000       
      77      -10.0185         2.000       
      76      -10.0841         2.000       
      75      -10.4426         2.000       
      74      -10.8421         2.000       
      73      -10.8588         2.000       
      72      -11.0821         2.000       
      71      -11.3880         2.000       
      70      -12.8649         2.000       
      69      -13.1413         2.000       
      68      -13.7164         2.000       
      67      -13.9969         2.000       
      66      -14.1941         2.000       
      65      -16.2956         2.000       
      64      -16.5410         2.000       
      63      -16.6873         2.000       
      62      -16.8029         2.000       
      61      -21.5877         2.000       
      60      -21.8509         2.000       
      59      -24.9648         2.000       
      58      -25.8360         2.000       
      57      -28.8719         2.000       
      56      -29.6534         2.000       
      55      -29.9829         2.000       
      54      -30.0577         2.000       
      53      -30.2661         2.000       
      52      -30.6582         2.000       
      51      -50.7954         2.000       
      50     -100.7301         2.000       
      49     -100.7561         2.000       
      48     -100.7691         2.000       
      47     -100.8308         2.000       
      46     -100.8362         2.000       
      45     -196.3894         2.000       
      44     -196.3939         2.000       
      43     -196.4173         2.000       
      42     -207.9079         2.000       
      41     -208.1130         2.000       
      40     -208.1192         2.000       
      39     -259.9512         2.000       
      38     -306.5735         2.000       
      37     -361.8337         2.000       
      36     -361.8492         2.000       
      35     -361.8931         2.000       
      34     -361.9811         2.000       
      33     -361.9814         2.000       
      32     -362.0854         2.000       
      31     -362.0885         2.000       
      30     -522.8310         2.000       
      29     -523.3134         2.000       
      28     -524.6155         2.000       
      27     -524.7322         2.000       
      26     -524.7377         2.000       
      25     -524.9901         2.000       
      24     -713.6633         2.000       
      23     -713.7638         2.000       
      22     -713.8127         2.000       
      21     -713.9346         2.000       
      20     -713.9427         2.000       
      19    -1041.9505         2.000       
      18    -1042.1711         2.000       
      17    -1042.2421         2.000       
      16    -1360.2999         2.000       
      15    -2776.1322         2.000       
      14    -3485.5222         2.000       
      13    -3485.5598         2.000       
      12    -3485.5800         2.000       
      11    -3485.6379         2.000       
      10    -3485.6411         2.000       
       9    -4347.7425         2.000       
       8    -4347.8654         2.000       
       7    -4347.9049         2.000       
       6    -5318.8980         2.000       
       5   -17561.8145         2.000       
       4   -17561.8327         2.000       
       3   -17561.8363         2.000       
       2   -21037.6266         2.000       
       1  -112699.3491         2.000       

PES point character cannot be identified reliably because some modes have a significant rigid character.


AMS application finished. Exiting.
NORMAL TERMINATION
     Total cpu time:  182399.79
  Total system time:   50828.75
 Total elapsed time:  238613.12
