

 Parallel Execution: Process Information
 ==============================================================================
 Rank   Node Name                              NodeID   MyNodeRank  NodeMaster
    0   u-0-2.local                               0          0          0
    1   u-0-2.local                               0          1         -1
    2   u-0-2.local                               0          2         -1
    3   u-0-2.local                               0          3         -1
    4   u-0-2.local                               1          0          1
    5   u-0-2.local                               1          1         -1
    6   u-0-2.local                               1          2         -1
    7   u-0-2.local                               1          3         -1
    8   u-0-2.local                               2          0          2
    9   u-0-2.local                               2          1         -1
   10   u-0-2.local                               2          2         -1
   11   u-0-2.local                               2          3         -1
   12   u-0-2.local                               3          0          3
   13   u-0-2.local                               3          1         -1
   14   u-0-2.local                               3          2         -1
   15   u-0-2.local                               3          3         -1
 ==============================================================================


May use up to 31228MB of RAM as shared memory on node 0
May use up to 31250MB of RAM as shared memory on node 1
May use up to 31250MB of RAM as shared memory on node 2
May use up to 31250MB of RAM as shared memory on node 3

 *******************************************************************************
 *                                                                             *
 *  --------------------------------                                           *
 *   Amsterdam Modeling Suite (AMS)              2024.103                      *
 *  --------------------------------                                           *
 *                                               r241004 2024-10-04 d82be5f7   *
 *                                                                             *
 *                                                                             *
 *                              =================                              *
 *                              |               |                              *
 *                              |     A M S     |                              *
 *                              |               |                              *
 *                              =================                              *
 *                                                                             *
 *                                                                             *
 *   Online information and documentation:  https://www.scm.com/support/       *
 *   E-mail:  support@scm.com   info@scm.com                                   *
 *                                                                             *
 *   Scientific publications using AMS results must be properly referenced     *
 *   See the User Manuals (or the web site) for recommended citations          *
 *   The terms and conditions of the End User License Agreement apply to       *
 *   the use of AMS, https://www.scm.com/license-terms/                        *
 *                                                                             *
 **********************  x86_64_linux_intel / intelmpi  ************************
 
 Licensed to: Dr. Val?rie Vallet / Laboratoire PhLAM UMR 8523 / Villeneuve d'Ascq Cedex / FRANCE 2024-12-20 16:14:47
 SCM User ID: u10325
  
 AMS 2024.103  RunTime: May09-2025 16:41:52  ShM Nodes: 4  Procs: 16

 AMS jobname: pao_oh_cl_4h2o.SR.pbe0.qz4p.opt-freq-solvation
 AMS jobid  : 670736484

 Start   directory: /state/partition2/shaaban/1051140.phlam-s-sakura/
 Results directory: /home/shaaban/ams/PhD/geometries-exafs/pao_oh_cl_4h2o/PBE0/pao_oh_cl_4h2o.SR.pbe0.qz4p.opt-freq-solvation.results/
 Scratch directory: /state/partition2/shaaban/1051140.phlam-s-sakura/amstmp_pao_oh_cl_4h2o.SR.pbe0.qz4p.opt-freq-solvation_kid0.670736484/


 Communication costs MPI_COMM_WORLD:      5.317 usec per message,   0.0387 usec per 8-byte item
 Communication costs for intra-node:      0.403 usec per message,   0.0085 usec per 8-byte item

 RNG seed: -1893168205 1116623273 -1256161518 -190200075 -498409323 1466709329 -849796915 -2069486173



                     *************************************************************************
                     *  ADF 2024.103  RunTime: May09-2025 16:41:53  ShM Nodes: 4  Procs: 16  *
                     *************************************************************************
  

       ***************************
       *  GEOMETRY OPTIMIZATION  *
       ***************************

Optimization Method                    Quasi Newton
Optimization Coordinates               Delocalized Coordinates
Optimize lattice                       F
 
 ------------------------------------------------------
 Convergence criteria (Hartree,Angstrom)
 ------------------------------------------------------
 Maximum gradient               0.000100000000
 Maximum rms gradient           0.000066666667
 Maximum step allowed           0.001000000000
 Maximum rms step allowed       0.000666666667
 Maximum energy change allowe   0.000017000000
 Maximum stress energy allowe   0.000500000000
 
Initial model Hessian                  Automatic Hessian
 
------------------------------------
Quasi-Newton Optimizer Parameters
------------------------------------
Hessian Update Method                  BFGS
Maximum number of steps                  250
First GDIIS cycle                          0
Maximum GDIIS vectors                      0
Trust radius (bohr)                        0.200000
Trust radius varies                        T
Constraints converged at all steps         T
Use projector                              T
 
 Rigid motions settings for: old optimizer
 Atomic rotations (x,y,z):     T T T
 Atomic translations (x,y,z):  T T T
 Tolerance:                   1.000000000000000E-006
 
--------
Geometry
--------
Formula: H9ClO6Pa
Atoms
  Index Symbol   x (angstrom)   y (angstrom)   z (angstrom)
      1     Pa    -0.29671470    -0.23881200     0.49561010       adf.R=2.200
      2      O     1.70046624     1.16624776     1.05283955       adf.R=1.517
      3      O    -0.48581174     0.72125489    -1.27661655       adf.R=1.517
      4     Cl    -1.20868529     1.85671964     1.91166506       adf.R=1.725
      5      H    -0.72830361     1.49947305    -1.79188361       adf.R=1.350
      6      O    -1.08026255    -2.27212234    -0.70840544       adf.R=1.517
      7      H    -1.25386872    -2.33611273    -1.65386662       adf.R=1.350
      8      H    -0.95948691    -3.17084121    -0.38341459       adf.R=1.350
      9      H     1.64098020     1.81551551     1.76221509       adf.R=1.350
     10      O    -0.02914850    -1.33844380     1.92357207       adf.R=1.517
     11      O     1.79569850    -1.21706191    -0.42739466       adf.R=1.517
     12      H     2.11889061    -1.11489351    -1.32918571       adf.R=1.350
     13      H     2.22038434    -2.00173077    -0.06426107       adf.R=1.350
     14      O    -2.78823304    -0.49519777     0.62271688       adf.R=1.517
     15      H    -3.21656654    -1.35021529     0.50631849       adf.R=1.350
     16      H    -3.28629111    -0.01029104     1.28979753       adf.R=1.350
     17      H     2.59111072     0.79949565     1.06953426       adf.R=1.350
 
Total System Charge             1.00000
Bonding info available!
 
 
----------------
ADF Engine Input
----------------
 
 Basis
 Type QZ4P
 Core None
 End
 XC
 Hybrid PBE0
 End
 Solvation
 Surf Delley
 Solv name=Water cav0=0.0 cav1=0.0067639
 Charged method=CONJ
 C-Mat POT
 SCF VAR ALL
 CSMRSP
 End
 NumericalQuality Good
 MBPT
 SigmaFunctionalParametrization W1
 End
 

 Title: *** (NO TITLE) ***

 Using automatic Hessian for delocalized coordinates.
 *** GO1_GOStep1 ***

 SOLVATION
-------------------------------------------

  The Delley construction of COSMO surface surface is calculated

       Division Level for Surface Triangles (NDIV)                  3
       Final Division Level for Triangles (NFDIV)                   1
       Radius of the Solvent (RSOL)                           1.93000 angstr
  Dielectric Constant (EPSL)                                 78.39000

       COSMO equation is solved iteratively-               conjugate-gradient

       Maximun of Iterations for Charges (NCIX)                  1000
       Criterion for Charge convergence (CCNV)                1.0E-08

  COSMO charges included variationally in SCF

       COSMO included at every SCF cycle

  Geometry-dependent empirical factor                         0.00000

  C-Matrix calculated in cspmtx

  In cspmtx, C-Matrix calculated using fitted potential

-------------------------------------------


 ***************************************************************************************************
 WARNING: the nr of fitcoefficients on the restart file is incorrect. No restart fitcoefficients are used.
 ***************************************************************************************************


 -------------------------------------------
  COSMO surface
  Area             =          645.002
  Volume           =         1164.766
  Number of Points =         1560
 -------------------------------------------
 
 RIHartreeFock Dependency: number of modified vectors:          78
 cosmo_calcen: 0.5 (esolb+esolc) (Hartrees) =   -0.128737

 Solvation energy (screening term,uncorrected) =    -80.783927 kcal/mol

 Solvation energy (dispersion and cavitation terms) =      1.206104 kcal/mol
 Solvation Energy Contributions (Hartrees)
          esola   esolb+esolc
     0.12873737   -0.25747474
 esol last cycle   -0.12873737
  
 Hartree-Fock exchange energy:   -547.103921236973     
 cosmo_calcen: 0.5 (esolb+esolc) (Hartrees) =   -0.128737

 Solvation energy (screening term,uncorrected) =    -80.783912 kcal/mol

 Solvation energy (dispersion and cavitation terms) =      1.206104 kcal/mol
 Solvation Energy Contributions (Hartrees)
          esola   esolb+esolc
     0.12873735   -0.25747469
 esol last cycle   -0.12873735

 Energy gradients wrt nuclear displacements
 ==========================================

     Atom      Cartesian (a.u./angstrom)
                 X         Y         Z
 ----------------------------------------
     1 Pa   -0.001513  0.001030  0.002453
     2 O    -0.001970 -0.000685 -0.001998
     3 O     0.000407 -0.001032 -0.000523
     4 Cl    0.000894 -0.001916 -0.001432
     5 H    -0.000914  0.003342 -0.002258
     6 O     0.000041  0.002834  0.001679
     7 H    -0.000778  0.000487 -0.004345
     8 H     0.000642 -0.003621  0.001926
     9 H    -0.000937  0.002973  0.002827
    10 O     0.000501 -0.001827  0.002385
    11 O    -0.001979  0.002176  0.001512
    12 H     0.001090  0.001100 -0.004167
    13 H     0.001615 -0.003237  0.002075
    14 O     0.002331  0.000932 -0.001578
    15 H    -0.001489 -0.003581 -0.000933
    16 H    -0.001622  0.002684  0.002752
    17 H     0.003680 -0.001662 -0.000374
 ----------------------------------------
 Mulliken charges used for AMS results%charges...
 
----------------------------------------------------------------------
Geometry Convergence after Step   1       (Hartree/Angstrom,Angstrom)
----------------------------------------------------------------------
current energy                               -4.28939620 Hartree
energy change                      -4.28939620     0.00001700    F
constrained gradient max            0.00426086     0.00010000    F
constrained gradient rms            0.00209618     0.00006667    F
gradient max                        0.00426086
gradient rms                        0.00209618
cart. step max                      0.00493830     0.00100000    F
cart. step rms                      0.00172643     0.00066667    F
 
 
--------
Geometry
--------
Formula: H9ClO6Pa
Atoms
  Index Symbol   x (angstrom)   y (angstrom)   z (angstrom)
      1     Pa    -0.29667929    -0.23669759     0.49505379       adf.R=2.200
      2      O     1.70111296     1.16640975     1.05207469       adf.R=1.517
      3      O    -0.48550094     0.72040812    -1.27678484       adf.R=1.517
      4     Cl    -1.20941682     1.85841426     1.91400952       adf.R=1.725
      5      H    -0.72804970     1.49652054    -1.79124064       adf.R=1.350
      6      O    -1.08064940    -2.27036540    -0.70733422       adf.R=1.517
      7      H    -1.25425372    -2.33565517    -1.65044994       adf.R=1.350
      8      H    -0.95989550    -3.16724321    -0.38361804       adf.R=1.350
      9      H     1.64361945     1.81230111     1.76181708       adf.R=1.350
     10      O    -0.02935494    -1.33623700     1.92141058       adf.R=1.517
     11      O     1.79496897    -1.21621330    -0.42707147       adf.R=1.517
     12      H     2.11777176    -1.11573381    -1.32681082       adf.R=1.350
     13      H     2.21778142    -2.00006977    -0.06572936       adf.R=1.350
     14      O    -2.78747584    -0.49605341     0.62102297       adf.R=1.517
     15      H    -3.21314331    -1.35023647     0.50542654       adf.R=1.350
     16      H    -3.28576458    -0.01522934     1.28783402       adf.R=1.350
     17      H     2.58908734     0.79866484     1.06963093       adf.R=1.350
 
Total System Charge             1.00000
Bonding info available!
 
 *** GO1_GOStep2 ***

 SOLVATION
-------------------------------------------

  The Delley construction of COSMO surface surface is calculated

       Division Level for Surface Triangles (NDIV)                  3
       Final Division Level for Triangles (NFDIV)                   1
       Radius of the Solvent (RSOL)                           1.93000 angstr
  Dielectric Constant (EPSL)                                 78.39000

       COSMO equation is solved iteratively-               conjugate-gradient

       Maximun of Iterations for Charges (NCIX)                  1000
       Criterion for Charge convergence (CCNV)                1.0E-08

  COSMO charges included variationally in SCF

       COSMO included at every SCF cycle

  Geometry-dependent empirical factor                         0.00000

  C-Matrix calculated in cspmtx

  In cspmtx, C-Matrix calculated using fitted potential

-------------------------------------------



 -------------------------------------------
  COSMO surface
  Area             =          645.046
  Volume           =         1164.511
  Number of Points =         1561
 -------------------------------------------
 
 RIHartreeFock Dependency: number of modified vectors:          78
 cosmo_calcen: 0.5 (esolb+esolc) (Hartrees) =   -0.128829

 Solvation energy (screening term,uncorrected) =    -80.841555 kcal/mol

 Solvation energy (dispersion and cavitation terms) =      1.206186 kcal/mol
 Solvation Energy Contributions (Hartrees)
          esola   esolb+esolc
     0.12882920   -0.25765841
 esol last cycle   -0.12882921
  
 Hartree-Fock exchange energy:   -547.116046587025     
 cosmo_calcen: 0.5 (esolb+esolc) (Hartrees) =   -0.128829

 Solvation energy (screening term,uncorrected) =    -80.841564 kcal/mol

 Solvation energy (dispersion and cavitation terms) =      1.206186 kcal/mol
 Solvation Energy Contributions (Hartrees)
          esola   esolb+esolc
     0.12882922   -0.25765844
 esol last cycle   -0.12882922

 Energy gradients wrt nuclear displacements
 ==========================================

     Atom      Cartesian (a.u./angstrom)
                 X         Y         Z
 ----------------------------------------
     1 Pa   -0.001245  0.000588  0.002492
     2 O     0.000759  0.000199  0.000489
     3 O    -0.000418  0.001361 -0.001540
     4 Cl    0.000814 -0.001730 -0.001240
     5 H     0.000091  0.000095 -0.000009
     6 O    -0.000175 -0.000419 -0.000511
     7 H     0.000026  0.000272 -0.000118
     8 H     0.000048  0.000079  0.000055
     9 H    -0.000245  0.000086 -0.000066
    10 O     0.000220 -0.000731  0.000836
    11 O     0.000624 -0.000179 -0.000445
    12 H    -0.000085  0.000236 -0.000079
    13 H     0.000005  0.000095  0.000061
    14 O    -0.000615 -0.000305  0.000266
    15 H     0.000009 -0.000001 -0.000085
    16 H     0.000125  0.000231 -0.000038
    17 H     0.000062  0.000124 -0.000068
 ----------------------------------------
 Mulliken charges used for AMS results%charges...

 dE(predicted):    -0.53742E-04, dE(actual):    -0.40582E-04, Trust radius:    0.200000, all in a.u.
 
----------------------------------------------------------------------
Geometry Convergence after Step   2       (Hartree/Angstrom,Angstrom)
----------------------------------------------------------------------
current energy                               -4.28943678 Hartree
energy change                      -0.00004058     0.00001700    F
constrained gradient max            0.00248003     0.00010000    F
constrained gradient rms            0.00065175     0.00006667    F
gradient max                        0.00248003
gradient rms                        0.00065175
cart. step max                      0.00312528     0.00100000    F
cart. step rms                      0.00120665     0.00066667    F
 
 
--------
Geometry
--------
Formula: H9ClO6Pa
Atoms
  Index Symbol   x (angstrom)   y (angstrom)   z (angstrom)
      1     Pa    -0.29666423    -0.23457417     0.49442312       adf.R=2.200
      2      O     1.70160892     1.16670251     1.05151052       adf.R=1.517
      3      O    -0.48541442     0.71992081    -1.27722564       adf.R=1.517
      4     Cl    -1.21053670     1.86016932     1.91639172       adf.R=1.725
      5      H    -0.72864932     1.49536813    -1.79191314       adf.R=1.350
      6      O    -1.08034148    -2.26898315    -0.70632866       adf.R=1.517
      7      H    -1.25437370    -2.33529436    -1.64904841       adf.R=1.350
      8      H    -0.95926300    -3.16555841    -0.38258372       adf.R=1.350
      9      H     1.64555886     1.81062047     1.76286341       adf.R=1.350
     10      O    -0.02957047    -1.33413555     1.91988322       adf.R=1.517
     11      O     1.79406128    -1.21575297    -0.42684761       adf.R=1.517
     12      H     2.11698023    -1.11628175    -1.32640119       adf.R=1.350
     13      H     2.21556767    -2.00024376    -0.06597399       adf.R=1.350
     14      O    -2.78684140    -0.49638482     0.61968310       adf.R=1.517
     15      H    -3.21075307    -1.35117191     0.50370494       adf.R=1.350
     16      H    -3.28571107    -0.01835462     1.28771794       adf.R=1.350
     17      H     2.58849979     0.79693836     1.06938516       adf.R=1.350
 
Total System Charge             1.00000
Bonding info available!
 
 *** GO1_GOStep3 ***

 SOLVATION
-------------------------------------------

  The Delley construction of COSMO surface surface is calculated

       Division Level for Surface Triangles (NDIV)                  3
       Final Division Level for Triangles (NFDIV)                   1
       Radius of the Solvent (RSOL)                           1.93000 angstr
  Dielectric Constant (EPSL)                                 78.39000

       COSMO equation is solved iteratively-               conjugate-gradient

       Maximun of Iterations for Charges (NCIX)                  1000
       Criterion for Charge convergence (CCNV)                1.0E-08

  COSMO charges included variationally in SCF

       COSMO included at every SCF cycle

  Geometry-dependent empirical factor                         0.00000

  C-Matrix calculated in cspmtx

  In cspmtx, C-Matrix calculated using fitted potential

-------------------------------------------



 -------------------------------------------
  COSMO surface
  Area             =          645.027
  Volume           =         1164.471
  Number of Points =         1560
 -------------------------------------------
 
 RIHartreeFock Dependency: number of modified vectors:          78
 cosmo_calcen: 0.5 (esolb+esolc) (Hartrees) =   -0.128950

 Solvation energy (screening term,uncorrected) =    -80.917318 kcal/mol

 Solvation energy (dispersion and cavitation terms) =      1.206151 kcal/mol
 Solvation Energy Contributions (Hartrees)
          esola   esolb+esolc
     0.12894994   -0.25789988
 esol last cycle   -0.12894994
  
 Hartree-Fock exchange energy:   -547.118465622685     
 cosmo_calcen: 0.5 (esolb+esolc) (Hartrees) =   -0.128950

 Solvation energy (screening term,uncorrected) =    -80.917314 kcal/mol

 Solvation energy (dispersion and cavitation terms) =      1.206151 kcal/mol
 Solvation Energy Contributions (Hartrees)
          esola   esolb+esolc
     0.12894993   -0.25789987
 esol last cycle   -0.12894993

 Energy gradients wrt nuclear displacements
 ==========================================

     Atom      Cartesian (a.u./angstrom)
                 X         Y         Z
 ----------------------------------------
     1 Pa   -0.001042  0.000510  0.002158
     2 O     0.000886  0.000162  0.000631
     3 O    -0.000409  0.001106 -0.000941
     4 Cl    0.000699 -0.001509 -0.001025
     5 H     0.000211 -0.000307  0.000324
     6 O    -0.000158 -0.000561 -0.000592
     7 H     0.000116  0.000158  0.000377
     8 H    -0.000043  0.000462 -0.000250
     9 H    -0.000050 -0.000273 -0.000343
    10 O     0.000060 -0.000132 -0.000041
    11 O     0.000721 -0.000346 -0.000549
    12 H    -0.000121 -0.000034  0.000325
    13 H    -0.000189  0.000569 -0.000170
    14 O    -0.000677 -0.000404  0.000373
    15 H     0.000075  0.000406  0.000082
    16 H     0.000303 -0.000169 -0.000372
    17 H    -0.000382  0.000363  0.000013
 ----------------------------------------
 Mulliken charges used for AMS results%charges...

 dE(predicted):    -0.70551E-05, dE(actual):     0.73491E-05, Trust radius:    0.020000, all in a.u.
 
----------------------------------------------------------------------
Geometry Convergence after Step   3       (Hartree/Angstrom,Angstrom)
----------------------------------------------------------------------
current energy                               -4.28942943 Hartree
energy change                       0.00000735     0.00001700    T
constrained gradient max            0.00214633     0.00010000    F
constrained gradient rms            0.00058886     0.00006667    F
gradient max                        0.00214633
gradient rms                        0.00058886
cart. step max                      0.00389309     0.00100000    F
cart. step rms                      0.00167263     0.00066667    F
 
 
--------
Geometry
--------
Formula: H9ClO6Pa
Atoms
  Index Symbol   x (angstrom)   y (angstrom)   z (angstrom)
      1     Pa    -0.29652291    -0.23182405     0.49384595       adf.R=2.200
      2      O     1.70217922     1.16694317     1.05100890       adf.R=1.517
      3      O    -0.48521699     0.71919190    -1.27763704       adf.R=1.517
      4     Cl    -1.21246599     1.86292821     1.92028481       adf.R=1.725
      5      H    -0.72942902     1.49409088    -1.79289612       adf.R=1.350
      6      O    -1.07935161    -2.26739567    -0.70470097       adf.R=1.517
      7      H    -1.25389578    -2.33514783    -1.64729590       adf.R=1.350
      8      H    -0.95777558    -3.16379666    -0.38044680       adf.R=1.350
      9      H     1.64785015     1.80915747     1.76414287       adf.R=1.350
     10      O    -0.02988114    -1.33143052     1.91866584       adf.R=1.517
     11      O     1.79239290    -1.21544295    -0.42700643       adf.R=1.517
     12      H     2.11522001    -1.11608835    -1.32660807       adf.R=1.350
     13      H     2.21238839    -2.00152460    -0.06741735       adf.R=1.350
     14      O    -2.78585763    -0.49651364     0.61775121       adf.R=1.517
     15      H    -3.20719001    -1.35257211     0.50105952       adf.R=1.350
     16      H    -3.28610994    -0.02151583     1.28705374       adf.R=1.350
     17      H     2.58782381     0.79392472     1.06943663       adf.R=1.350
 
Total System Charge             1.00000
Bonding info available!
 
 *** GO1_GOStep4 ***

 SOLVATION
-------------------------------------------

  The Delley construction of COSMO surface surface is calculated

       Division Level for Surface Triangles (NDIV)                  3
       Final Division Level for Triangles (NFDIV)                   1
       Radius of the Solvent (RSOL)                           1.93000 angstr
  Dielectric Constant (EPSL)                                 78.39000

       COSMO equation is solved iteratively-               conjugate-gradient

       Maximun of Iterations for Charges (NCIX)                  1000
       Criterion for Charge convergence (CCNV)                1.0E-08

  COSMO charges included variationally in SCF

       COSMO included at every SCF cycle

  Geometry-dependent empirical factor                         0.00000

  C-Matrix calculated in cspmtx

  In cspmtx, C-Matrix calculated using fitted potential

-------------------------------------------



 -------------------------------------------
  COSMO surface
  Area             =          645.026
  Volume           =         1164.483
  Number of Points =         1558
 -------------------------------------------
 
 RIHartreeFock Dependency: number of modified vectors:          78
 cosmo_calcen: 0.5 (esolb+esolc) (Hartrees) =   -0.129180

 Solvation energy (screening term,uncorrected) =    -81.061468 kcal/mol

 Solvation energy (dispersion and cavitation terms) =      1.206148 kcal/mol
 Solvation Energy Contributions (Hartrees)
          esola   esolb+esolc
     0.12917966   -0.25835932
 esol last cycle   -0.12917966
  
 Hartree-Fock exchange energy:   -547.119328450979     
 cosmo_calcen: 0.5 (esolb+esolc) (Hartrees) =   -0.129180

 Solvation energy (screening term,uncorrected) =    -81.061455 kcal/mol

 Solvation energy (dispersion and cavitation terms) =      1.206148 kcal/mol
 Solvation Energy Contributions (Hartrees)
          esola   esolb+esolc
     0.12917964   -0.25835928
 esol last cycle   -0.12917964

 Energy gradients wrt nuclear displacements
 ==========================================

     Atom      Cartesian (a.u./angstrom)
                 X         Y         Z
 ----------------------------------------
     1 Pa   -0.000736  0.000598  0.001264
     2 O     0.000514  0.000005  0.000420
     3 O    -0.000214  0.000180  0.000185
     4 Cl    0.000466 -0.001068 -0.000650
     5 H     0.000165 -0.000189  0.000331
     6 O    -0.000072 -0.000151 -0.000310
     7 H     0.000090  0.000030  0.000284
     8 H    -0.000061  0.000310 -0.000332
     9 H     0.000018 -0.000237 -0.000253
    10 O    -0.000068  0.000298 -0.000704
    11 O     0.000347 -0.000027 -0.000526
    12 H    -0.000145  0.000002  0.000442
    13 H     0.000026  0.000222 -0.000240
    14 O    -0.000230 -0.000387  0.000145
    15 H    -0.000035  0.000319  0.000140
    16 H     0.000167 -0.000197 -0.000267
    17 H    -0.000234  0.000293  0.000069
 ----------------------------------------
 Mulliken charges used for AMS results%charges...

 dE(predicted):    -0.88262E-05, dE(actual):     0.96650E-05, Trust radius:    0.020000, all in a.u.
 
----------------------------------------------------------------------
Geometry Convergence after Step   4       (Hartree/Angstrom,Angstrom)
----------------------------------------------------------------------
current energy                               -4.28941976 Hartree
energy change                       0.00000967     0.00001700    T
constrained gradient max            0.00125144     0.00010000    F
constrained gradient rms            0.00037870     0.00006667    F
gradient max                        0.00125144
gradient rms                        0.00037870
cart. step max                      0.00375734     0.00100000    F
cart. step rms                      0.00160580     0.00066667    F
 
 
--------
Geometry
--------
Formula: H9ClO6Pa
Atoms
  Index Symbol   x (angstrom)   y (angstrom)   z (angstrom)
      1     Pa    -0.29637387    -0.22930317     0.49296475       adf.R=2.200
      2      O     1.70244165     1.16730265     1.05044812       adf.R=1.517
      3      O    -0.48537572     0.71945128    -1.27855163       adf.R=1.517
      4     Cl    -1.21436861     1.86556424     1.92404215       adf.R=1.725
      5      H    -0.73077413     1.49394680    -1.79424485       adf.R=1.350
      6      O    -1.07794329    -2.26617769    -0.70360139       adf.R=1.517
      7      H    -1.25292348    -2.33512258    -1.64619521       adf.R=1.350
      8      H    -0.95556376    -3.16236623    -0.37862859       adf.R=1.350
      9      H     1.64963980     1.80760603     1.76565675       adf.R=1.350
     10      O    -0.03003761    -1.32878361     1.91798122       adf.R=1.517
     11      O     1.79074719    -1.21564618    -0.42716390       adf.R=1.517
     12      H     2.11356370    -1.11730732    -1.32716344       adf.R=1.350
     13      H     2.20903702    -2.00276035    -0.06771446       adf.R=1.350
     14      O    -2.78494789    -0.49626446     0.61631113       adf.R=1.517
     15      H    -3.20353929    -1.35369456     0.49860460       adf.R=1.350
     16      H    -3.28623731    -0.02434538     1.28725211       adf.R=1.350
     17      H     2.58681349     0.79088465     1.06924343       adf.R=1.350
 
Total System Charge             1.00000
Bonding info available!
 
 *** GO1_GOStep5 ***

 SOLVATION
-------------------------------------------

  The Delley construction of COSMO surface surface is calculated

       Division Level for Surface Triangles (NDIV)                  3
       Final Division Level for Triangles (NFDIV)                   1
       Radius of the Solvent (RSOL)                           1.93000 angstr
  Dielectric Constant (EPSL)                                 78.39000

       COSMO equation is solved iteratively-               conjugate-gradient

       Maximun of Iterations for Charges (NCIX)                  1000
       Criterion for Charge convergence (CCNV)                1.0E-08

  COSMO charges included variationally in SCF

       COSMO included at every SCF cycle

  Geometry-dependent empirical factor                         0.00000

  C-Matrix calculated in cspmtx

  In cspmtx, C-Matrix calculated using fitted potential

-------------------------------------------



 -------------------------------------------
  COSMO surface
  Area             =          644.683
  Volume           =         1163.964
  Number of Points =         1558
 -------------------------------------------
 
 RIHartreeFock Dependency: number of modified vectors:          78
 cosmo_calcen: 0.5 (esolb+esolc) (Hartrees) =   -0.129430

 Solvation energy (screening term,uncorrected) =    -81.218250 kcal/mol

 Solvation energy (dispersion and cavitation terms) =      1.205507 kcal/mol
 Solvation Energy Contributions (Hartrees)
          esola   esolb+esolc
     0.12942951   -0.25885901
 esol last cycle   -0.12942951
  
 Hartree-Fock exchange energy:   -547.118856573248     
 cosmo_calcen: 0.5 (esolb+esolc) (Hartrees) =   -0.129429

 Solvation energy (screening term,uncorrected) =    -81.218237 kcal/mol

 Solvation energy (dispersion and cavitation terms) =      1.205507 kcal/mol
 Solvation Energy Contributions (Hartrees)
          esola   esolb+esolc
     0.12942949   -0.25885897
 esol last cycle   -0.12942949

 Energy gradients wrt nuclear displacements
 ==========================================

     Atom      Cartesian (a.u./angstrom)
                 X         Y         Z
 ----------------------------------------
     1 Pa   -0.000424  0.000742  0.000137
     2 O     0.000153 -0.000175  0.000136
     3 O    -0.000049 -0.000532  0.000894
     4 Cl    0.000196 -0.000555 -0.000208
     5 H     0.000070  0.000092  0.000197
     6 O     0.000034  0.000231 -0.000033
     7 H     0.000027 -0.000024 -0.000001
     8 H    -0.000044  0.000042 -0.000268
     9 H     0.000035 -0.000059 -0.000026
    10 O    -0.000072  0.000230 -0.000627
    11 O    -0.000011 -0.000021 -0.000045
    12 H     0.000121  0.000049 -0.000005
    13 H    -0.000033  0.000141 -0.000237
    14 O     0.000165 -0.000305 -0.000060
    15 H    -0.000129  0.000089  0.000122
    16 H    -0.000010 -0.000095 -0.000065
    17 H    -0.000029  0.000151  0.000089
 ----------------------------------------
 Mulliken charges used for AMS results%charges...

 dE(predicted):    -0.45221E-05, dE(actual):     0.17558E-04, Trust radius:    0.020000, all in a.u.
 
----------------------------------------------------------------------
Geometry Convergence after Step   5       (Hartree/Angstrom,Angstrom)
----------------------------------------------------------------------
current energy                               -4.28940221 Hartree
energy change                       0.00001756     0.00001700    F
constrained gradient max            0.00083182     0.00010000    F
constrained gradient rms            0.00024539     0.00006667    F
gradient max                        0.00083182
gradient rms                        0.00024539
cart. step max                      0.00216641     0.00100000    F
cart. step rms                      0.00104546     0.00066667    F
 
 
--------
Geometry
--------
Formula: H9ClO6Pa
Atoms
  Index Symbol   x (angstrom)   y (angstrom)   z (angstrom)
      1     Pa    -0.29627251    -0.22803430     0.49221319       adf.R=2.200
      2      O     1.70233624     1.16750803     1.05030930       adf.R=1.517
      3      O    -0.48551420     0.72027325    -1.27962093       adf.R=1.517
      4     Cl    -1.21535775     1.86717881     1.92577114       adf.R=1.725
      5      H    -0.73181849     1.49442511    -1.79555290       adf.R=1.350
      6      O    -1.07694535    -2.26596907    -0.70294824       adf.R=1.517
      7      H    -1.25215522    -2.33559256    -1.64551815       adf.R=1.350
      8      H    -0.95377330    -3.16186945    -0.37730928       adf.R=1.350
      9      H     1.65024474     1.80602163     1.76728157       adf.R=1.350
     10      O    -0.03002563    -1.32711235     1.91788717       adf.R=1.517
     11      O     1.78990013    -1.21576215    -0.42747529       adf.R=1.517
     12      H     2.11186975    -1.11843912    -1.32792566       adf.R=1.350
     13      H     2.20767804    -2.00314665    -0.06774797       adf.R=1.350
     14      O    -2.78450109    -0.49557847     0.61565316       adf.R=1.517
     15      H    -3.20137287    -1.35375234     0.49672292       adf.R=1.350
     16      H    -3.28596155    -0.02599453     1.28819864       adf.R=1.350
     17      H     2.58582696     0.78882828     1.06930213       adf.R=1.350
 
Total System Charge             1.00000
Bonding info available!
 
 *** GO1_GOStep6 ***

 SOLVATION
-------------------------------------------

  The Delley construction of COSMO surface surface is calculated

       Division Level for Surface Triangles (NDIV)                  3
       Final Division Level for Triangles (NFDIV)                   1
       Radius of the Solvent (RSOL)                           1.93000 angstr
  Dielectric Constant (EPSL)                                 78.39000

       COSMO equation is solved iteratively-               conjugate-gradient

       Maximun of Iterations for Charges (NCIX)                  1000
       Criterion for Charge convergence (CCNV)                1.0E-08

  COSMO charges included variationally in SCF

       COSMO included at every SCF cycle

  Geometry-dependent empirical factor                         0.00000

  C-Matrix calculated in cspmtx

  In cspmtx, C-Matrix calculated using fitted potential

-------------------------------------------



 -------------------------------------------
  COSMO surface
  Area             =          644.622
  Volume           =         1163.996
  Number of Points =         1557
 -------------------------------------------
 
 RIHartreeFock Dependency: number of modified vectors:          78
 cosmo_calcen: 0.5 (esolb+esolc) (Hartrees) =   -0.129591

 Solvation energy (screening term,uncorrected) =    -81.319424 kcal/mol

 Solvation energy (dispersion and cavitation terms) =      1.205394 kcal/mol
 Solvation Energy Contributions (Hartrees)
          esola   esolb+esolc
     0.12959074   -0.25918147
 esol last cycle   -0.12959074
  
 Hartree-Fock exchange energy:   -547.118096508718     
 cosmo_calcen: 0.5 (esolb+esolc) (Hartrees) =   -0.129591

 Solvation energy (screening term,uncorrected) =    -81.319409 kcal/mol

 Solvation energy (dispersion and cavitation terms) =      1.205394 kcal/mol
 Solvation Energy Contributions (Hartrees)
          esola   esolb+esolc
     0.12959071   -0.25918143
 esol last cycle   -0.12959071

 Energy gradients wrt nuclear displacements
 ==========================================

     Atom      Cartesian (a.u./angstrom)
                 X         Y         Z
 ----------------------------------------
     1 Pa   -0.000195  0.000708 -0.000410
     2 O    -0.000017 -0.000219  0.000031
     3 O    -0.000040 -0.000590  0.000833
     4 Cl    0.000020 -0.000216  0.000067
     5 H     0.000032  0.000209  0.000120
     6 O     0.000086  0.000275  0.000039
     7 H    -0.000005  0.000004 -0.000128
     8 H    -0.000024 -0.000055 -0.000202
     9 H     0.000037  0.000015  0.000075
    10 O    -0.000016 -0.000029 -0.000250
    11 O    -0.000134  0.000073 -0.000064
    12 H     0.000162 -0.000032 -0.000138
    13 H    -0.000013  0.000092 -0.000070
    14 O     0.000241 -0.000241 -0.000091
    15 H    -0.000124 -0.000030  0.000089
    16 H    -0.000063 -0.000025  0.000010
    17 H     0.000054  0.000060  0.000091
 ----------------------------------------
 Mulliken charges used for AMS results%charges...

 dE(predicted):    -0.16152E-05, dE(actual):     0.87796E-05, Trust radius:    0.020000, all in a.u.
 
----------------------------------------------------------------------
Geometry Convergence after Step   6       (Hartree/Angstrom,Angstrom)
----------------------------------------------------------------------
current energy                               -4.28939343 Hartree
energy change                       0.00000878     0.00001700    T
constrained gradient max            0.00077577     0.00010000    F
constrained gradient rms            0.00020941     0.00006667    F
gradient max                        0.00077577
gradient rms                        0.00020941
cart. step max                      0.00258802     0.00100000    F
cart. step rms                      0.00111054     0.00066667    F
 
 
--------
Geometry
--------
Formula: H9ClO6Pa
Atoms
  Index Symbol   x (angstrom)   y (angstrom)   z (angstrom)
      1     Pa    -0.29617039    -0.22733894     0.49149724       adf.R=2.200
      2      O     1.70197809     1.16759733     1.05047616       adf.R=1.517
      3      O    -0.48534112     0.72130295    -1.28094303       adf.R=1.517
      4     Cl    -1.21584919     1.86850944     1.92665493       adf.R=1.725
      5      H    -0.73259836     1.49492321    -1.79720951       adf.R=1.350
      6      O    -1.07621805    -2.26652588    -0.70192547       adf.R=1.517
      7      H    -1.25157448    -2.33694578    -1.64440963       adf.R=1.350
      8      H    -0.95215598    -3.16195069    -0.37529673       adf.R=1.350
      9      H     1.65024795     1.80390267     1.76947343       adf.R=1.350
     10      O    -0.03001082    -1.32566513     1.91808783       adf.R=1.517
     11      O     1.78946691    -1.21553272    -0.42795189       adf.R=1.517
     12      H     2.11025454    -1.11794111    -1.32872443       adf.R=1.350
     13      H     2.20687617    -2.00358345    -0.06900813       adf.R=1.350
     14      O    -2.78426400    -0.49427894     0.61504627       adf.R=1.517
     15      H    -3.19970563    -1.35288639     0.49413490       adf.R=1.350
     16      H    -3.28538941    -0.02744928     1.28976970       adf.R=1.350
     17      H     2.58461167     0.78684684     1.06956916       adf.R=1.350
 
Total System Charge             1.00000
Bonding info available!
 
 *** GO1_GOStep7 ***

 SOLVATION
-------------------------------------------

  The Delley construction of COSMO surface surface is calculated

       Division Level for Surface Triangles (NDIV)                  3
       Final Division Level for Triangles (NFDIV)                   1
       Radius of the Solvent (RSOL)                           1.93000 angstr
  Dielectric Constant (EPSL)                                 78.39000

       COSMO equation is solved iteratively-               conjugate-gradient

       Maximun of Iterations for Charges (NCIX)                  1000
       Criterion for Charge convergence (CCNV)                1.0E-08

  COSMO charges included variationally in SCF

       COSMO included at every SCF cycle

  Geometry-dependent empirical factor                         0.00000

  C-Matrix calculated in cspmtx

  In cspmtx, C-Matrix calculated using fitted potential

-------------------------------------------



 -------------------------------------------
  COSMO surface
  Area             =          643.118
  Volume           =         1161.929
  Number of Points =         1554
 -------------------------------------------
 
 RIHartreeFock Dependency: number of modified vectors:          78
 cosmo_calcen: 0.5 (esolb+esolc) (Hartrees) =   -0.129716

 Solvation energy (screening term,uncorrected) =    -81.398047 kcal/mol

 Solvation energy (dispersion and cavitation terms) =      1.202581 kcal/mol
 Solvation Energy Contributions (Hartrees)
          esola   esolb+esolc
     0.12971603   -0.25943206
 esol last cycle   -0.12971603
  
 Hartree-Fock exchange energy:   -547.117337329516     
 cosmo_calcen: 0.5 (esolb+esolc) (Hartrees) =   -0.129716

 Solvation energy (screening term,uncorrected) =    -81.398034 kcal/mol

 Solvation energy (dispersion and cavitation terms) =      1.202581 kcal/mol
 Solvation Energy Contributions (Hartrees)
          esola   esolb+esolc
     0.12971601   -0.25943202
 esol last cycle   -0.12971601

 Energy gradients wrt nuclear displacements
 ==========================================

     Atom      Cartesian (a.u./angstrom)
                 X         Y         Z
 ----------------------------------------
     1 Pa    0.000061  0.000420 -0.000602
     2 O    -0.000074 -0.000165  0.000018
     3 O    -0.000126 -0.000260  0.000346
     4 Cl   -0.000122  0.000076  0.000286
     5 H     0.000030  0.000209  0.000094
     6 O     0.000109  0.000137 -0.000029
     7 H    -0.000017  0.000079 -0.000138
     8 H    -0.000006 -0.000050 -0.000129
     9 H     0.000030  0.000021  0.000102
    10 O     0.000058 -0.000288  0.000170
    11 O    -0.000117  0.000135 -0.000245
    12 H    -0.000003  0.000098  0.000063
    13 H     0.000095 -0.000155 -0.000049
    14 O     0.000143 -0.000185 -0.000039
    15 H    -0.000060 -0.000049  0.000011
    16 H    -0.000038 -0.000009  0.000060
    17 H     0.000036 -0.000013  0.000081
 ----------------------------------------
 Mulliken charges used for AMS results%charges...

 dE(predicted):    -0.13645E-05, dE(actual):     0.71676E-05, Trust radius:    0.020000, all in a.u.
 
----------------------------------------------------------------------
Geometry Convergence after Step   7       (Hartree/Angstrom,Angstrom)
----------------------------------------------------------------------
current energy                               -4.28938626 Hartree
energy change                       0.00000717     0.00001700    T
constrained gradient max            0.00061437     0.00010000    F
constrained gradient rms            0.00015273     0.00006667    F
gradient max                        0.00061437
gradient rms                        0.00015273
cart. step max                      0.00106792     0.00100000    F
cart. step rms                      0.00042632     0.00066667    T
 
 
--------
Geometry
--------
Formula: H9ClO6Pa
Atoms
  Index Symbol   x (angstrom)   y (angstrom)   z (angstrom)
      1     Pa    -0.29619159    -0.22761483     0.49128450       adf.R=2.200
      2      O     1.70170813     1.16751945     1.05065974       adf.R=1.517
      3      O    -0.48505333     0.72168060    -1.28142499       adf.R=1.517
      4     Cl    -1.21546419     1.86857766     1.92597227       adf.R=1.725
      5      H    -0.73266899     1.49505559    -1.79782109       adf.R=1.350
      6      O    -1.07652811    -2.26700532    -0.70173537       adf.R=1.517
      7      H    -1.25185541    -2.33757077    -1.64419852       adf.R=1.350
      8      H    -0.95217350    -3.16226616    -0.37482942       adf.R=1.350
      9      H     1.64979010     1.80283475     1.77049917       adf.R=1.350
     10      O    -0.02998176    -1.32550974     1.91815329       adf.R=1.517
     11      O     1.78980700    -1.21509416    -0.42804699       adf.R=1.517
     12      H     2.11010109    -1.11760768    -1.32907915       adf.R=1.350
     13      H     2.20750268    -2.00285103    -0.06903247       adf.R=1.350
     14      O    -2.78438875    -0.49370611     0.61512467       adf.R=1.517
     15      H    -3.19963999    -1.35229947     0.49349241       adf.R=1.350
     16      H    -3.28506853    -0.02772900     1.29073466       adf.R=1.350
     17      H     2.58426303     0.78657037     1.06948808       adf.R=1.350
 
Total System Charge             1.00000
Bonding info available!
 
 *** GO1_GOStep8 ***

 SOLVATION
-------------------------------------------

  The Delley construction of COSMO surface surface is calculated

       Division Level for Surface Triangles (NDIV)                  3
       Final Division Level for Triangles (NFDIV)                   1
       Radius of the Solvent (RSOL)                           1.93000 angstr
  Dielectric Constant (EPSL)                                 78.39000

       COSMO equation is solved iteratively-               conjugate-gradient

       Maximun of Iterations for Charges (NCIX)                  1000
       Criterion for Charge convergence (CCNV)                1.0E-08

  COSMO charges included variationally in SCF

       COSMO included at every SCF cycle

  Geometry-dependent empirical factor                         0.00000

  C-Matrix calculated in cspmtx

  In cspmtx, C-Matrix calculated using fitted potential

-------------------------------------------



 -------------------------------------------
  COSMO surface
  Area             =          643.099
  Volume           =         1161.925
  Number of Points =         1552
 -------------------------------------------
 
 RIHartreeFock Dependency: number of modified vectors:          78
 cosmo_calcen: 0.5 (esolb+esolc) (Hartrees) =   -0.129712

 Solvation energy (screening term,uncorrected) =    -81.395702 kcal/mol

 Solvation energy (dispersion and cavitation terms) =      1.202546 kcal/mol
 Solvation Energy Contributions (Hartrees)
          esola   esolb+esolc
     0.12971229   -0.25942459
 esol last cycle   -0.12971229
  
 Hartree-Fock exchange energy:   -547.117183075159     
 cosmo_calcen: 0.5 (esolb+esolc) (Hartrees) =   -0.129712

 Solvation energy (screening term,uncorrected) =    -81.395692 kcal/mol

 Solvation energy (dispersion and cavitation terms) =      1.202546 kcal/mol
 Solvation Energy Contributions (Hartrees)
          esola   esolb+esolc
     0.12971228   -0.25942455
 esol last cycle   -0.12971228

 Energy gradients wrt nuclear displacements
 ==========================================

     Atom      Cartesian (a.u./angstrom)
                 X         Y         Z
 ----------------------------------------
     1 Pa    0.000104  0.000131 -0.000256
     2 O    -0.000068 -0.000115  0.000042
     3 O    -0.000177  0.000012  0.000005
     4 Cl   -0.000111  0.000073  0.000265
     5 H     0.000045  0.000166  0.000097
     6 O     0.000089  0.000024 -0.000082
     7 H    -0.000014  0.000116 -0.000115
     8 H     0.000002 -0.000001 -0.000109
     9 H     0.000018 -0.000009  0.000090
    10 O     0.000061 -0.000258  0.000169
    11 O    -0.000031 -0.000026 -0.000073
    12 H     0.000020  0.000135 -0.000066
    13 H     0.000006 -0.000011 -0.000086
    14 O     0.000054 -0.000147  0.000021
    15 H    -0.000024 -0.000048 -0.000008
    16 H    -0.000002 -0.000014  0.000034
    17 H     0.000029 -0.000027  0.000070
 ----------------------------------------
 Mulliken charges used for AMS results%charges...

 dE(predicted):    -0.42208E-06, dE(actual):    -0.19864E-05, Trust radius:    0.020000, all in a.u.
 
----------------------------------------------------------------------
Geometry Convergence after Step   8       (Hartree/Angstrom,Angstrom)
----------------------------------------------------------------------
current energy                               -4.28938825 Hartree
energy change                      -0.00000199     0.00001700    T
constrained gradient max            0.00026781     0.00010000    F
constrained gradient rms            0.00008179     0.00006667    F
gradient max                        0.00026781
gradient rms                        0.00008179
cart. step max                      0.00150830     0.00100000    F
cart. step rms                      0.00063620     0.00066667    T
 
 
--------
Geometry
--------
Formula: H9ClO6Pa
Atoms
  Index Symbol   x (angstrom)   y (angstrom)   z (angstrom)
      1     Pa    -0.29621579    -0.22799021     0.49103932       adf.R=2.200
      2      O     1.70136965     1.16747088     1.05094773       adf.R=1.517
      3      O    -0.48443314     0.72189430    -1.28191953       adf.R=1.517
      4     Cl    -1.21469559     1.86862736     1.92490233       adf.R=1.725
      5      H    -0.73272166     1.49482294    -1.79857133       adf.R=1.350
      6      O    -1.07728301    -2.26750403    -0.70145174       adf.R=1.517
      7      H    -1.25252368    -2.33835058    -1.64388586       adf.R=1.350
      8      H    -0.95256826    -3.16258476    -0.37425904       adf.R=1.350
      9      H     1.64916307     1.80134122     1.77200748       adf.R=1.350
     10      O    -0.02996670    -1.32538445     1.91808283       adf.R=1.517
     11      O     1.79037492    -1.21427374    -0.42814934       adf.R=1.517
     12      H     2.10988492    -1.11715427    -1.32950484       adf.R=1.350
     13      H     2.20867620    -2.00156658    -0.06895889       adf.R=1.350
     14      O    -2.78456568    -0.49293902     0.61514619       adf.R=1.517
     15      H    -3.19956771    -1.35148563     0.49242935       adf.R=1.350
     16      H    -3.28464904    -0.02837257     1.29213232       adf.R=1.350
     17      H     2.58387940     0.78643327     1.06925383       adf.R=1.350
 
Total System Charge             1.00000
Bonding info available!
 
 *** GO1_GOStep9 ***

 SOLVATION
-------------------------------------------

  The Delley construction of COSMO surface surface is calculated

       Division Level for Surface Triangles (NDIV)                  3
       Final Division Level for Triangles (NFDIV)                   1
       Radius of the Solvent (RSOL)                           1.93000 angstr
  Dielectric Constant (EPSL)                                 78.39000

       COSMO equation is solved iteratively-               conjugate-gradient

       Maximun of Iterations for Charges (NCIX)                  1000
       Criterion for Charge convergence (CCNV)                1.0E-08

  COSMO charges included variationally in SCF

       COSMO included at every SCF cycle

  Geometry-dependent empirical factor                         0.00000

  C-Matrix calculated in cspmtx

  In cspmtx, C-Matrix calculated using fitted potential

-------------------------------------------



 -------------------------------------------
  COSMO surface
  Area             =          643.066
  Volume           =         1161.896
  Number of Points =         1553
 -------------------------------------------
 
 RIHartreeFock Dependency: number of modified vectors:          78
 cosmo_calcen: 0.5 (esolb+esolc) (Hartrees) =   -0.129697

 Solvation energy (screening term,uncorrected) =    -81.386211 kcal/mol

 Solvation energy (dispersion and cavitation terms) =      1.202484 kcal/mol
 Solvation Energy Contributions (Hartrees)
          esola   esolb+esolc
     0.12969717   -0.25939434
 esol last cycle   -0.12969717
  
 Hartree-Fock exchange energy:   -547.117264772527     
 cosmo_calcen: 0.5 (esolb+esolc) (Hartrees) =   -0.129697

 Solvation energy (screening term,uncorrected) =    -81.386202 kcal/mol

 Solvation energy (dispersion and cavitation terms) =      1.202484 kcal/mol
 Solvation Energy Contributions (Hartrees)
          esola   esolb+esolc
     0.12969715   -0.25939431
 esol last cycle   -0.12969715

 Energy gradients wrt nuclear displacements
 ==========================================

     Atom      Cartesian (a.u./angstrom)
                 X         Y         Z
 ----------------------------------------
     1 Pa    0.000131 -0.000225  0.000217
     2 O    -0.000035 -0.000076  0.000084
     3 O    -0.000216  0.000266 -0.000280
     4 Cl   -0.000066  0.000020  0.000200
     5 H     0.000064  0.000104  0.000115
     6 O     0.000052 -0.000065 -0.000129
     7 H    -0.000007  0.000136 -0.000070
     8 H     0.000007  0.000053 -0.000107
     9 H    -0.000003 -0.000042  0.000060
    10 O     0.000038 -0.000112  0.000007
    11 O     0.000054 -0.000079 -0.000025
    12 H    -0.000090  0.000133 -0.000078
    13 H     0.000051  0.000091 -0.000107
    14 O    -0.000022 -0.000116  0.000069
    15 H     0.000016 -0.000034 -0.000001
    16 H     0.000032 -0.000025 -0.000009
    17 H    -0.000008 -0.000030  0.000056
 ----------------------------------------
 Mulliken charges used for AMS results%charges...

 dE(predicted):    -0.40282E-06, dE(actual):    -0.21300E-05, Trust radius:    0.020000, all in a.u.
 
----------------------------------------------------------------------
Geometry Convergence after Step   9       (Hartree/Angstrom,Angstrom)
----------------------------------------------------------------------
current energy                               -4.28939038 Hartree
energy change                      -0.00000213     0.00001700    T
constrained gradient max            0.00034092     0.00010000    F
constrained gradient rms            0.00008910     0.00006667    F
gradient max                        0.00034092
gradient rms                        0.00008910
cart. step max                      0.00152852     0.00100000    F
cart. step rms                      0.00057803     0.00066667    T
 
 
--------
Geometry
--------
Formula: H9ClO6Pa
Atoms
  Index Symbol   x (angstrom)   y (angstrom)   z (angstrom)
      1     Pa    -0.29622294    -0.22799831     0.49073214       adf.R=2.200
      2      O     1.70113347     1.16765133     1.05102765       adf.R=1.517
      3      O    -0.48385713     0.72198103    -1.28234443       adf.R=1.517
      4     Cl    -1.21406679     1.86880023     1.92438370       adf.R=1.725
      5      H    -0.73308915     1.49436556    -1.79930326       adf.R=1.350
      6      O    -1.07796046    -2.26765294    -0.70116163       adf.R=1.517
      7      H    -1.25311634    -2.33891749    -1.64356271       adf.R=1.350
      8      H    -0.95283386    -3.16257072    -0.37371433       adf.R=1.350
      9      H     1.64886325     1.79995798     1.77343051       adf.R=1.350
     10      O    -0.03000506    -1.32512007     1.91781752       adf.R=1.517
     11      O     1.79076380    -1.21360324    -0.42807391       adf.R=1.517
     12      H     2.11023881    -1.11676024    -1.32948417       adf.R=1.350
     13      H     2.20879773    -2.00096579    -0.06883220       adf.R=1.350
     14      O    -2.78464512    -0.49223461     0.61501478       adf.R=1.517
     15      H    -3.19917810    -1.35081127     0.49100107       adf.R=1.350
     16      H    -3.28422970    -0.02957875     1.29366084       adf.R=1.350
     17      H     2.58356548     0.78644140     1.06864921       adf.R=1.350
 
Total System Charge             1.00000
Bonding info available!
 
 *** GO1_GOStep10 ***

 SOLVATION
-------------------------------------------

  The Delley construction of COSMO surface surface is calculated

       Division Level for Surface Triangles (NDIV)                  3
       Final Division Level for Triangles (NFDIV)                   1
       Radius of the Solvent (RSOL)                           1.93000 angstr
  Dielectric Constant (EPSL)                                 78.39000

       COSMO equation is solved iteratively-               conjugate-gradient

       Maximun of Iterations for Charges (NCIX)                  1000
       Criterion for Charge convergence (CCNV)                1.0E-08

  COSMO charges included variationally in SCF

       COSMO included at every SCF cycle

  Geometry-dependent empirical factor                         0.00000

  C-Matrix calculated in cspmtx

  In cspmtx, C-Matrix calculated using fitted potential

-------------------------------------------



 -------------------------------------------
  COSMO surface
  Area             =          643.050
  Volume           =         1161.890
  Number of Points =         1550
 -------------------------------------------
 
 RIHartreeFock Dependency: number of modified vectors:          78
 cosmo_calcen: 0.5 (esolb+esolc) (Hartrees) =   -0.129703

 Solvation energy (screening term,uncorrected) =    -81.390105 kcal/mol

 Solvation energy (dispersion and cavitation terms) =      1.202454 kcal/mol
 Solvation Energy Contributions (Hartrees)
          esola   esolb+esolc
     0.12970338   -0.25940675
 esol last cycle   -0.12970338
  
 Hartree-Fock exchange energy:   -547.117455313731     
 cosmo_calcen: 0.5 (esolb+esolc) (Hartrees) =   -0.129703

 Solvation energy (screening term,uncorrected) =    -81.390094 kcal/mol

 Solvation energy (dispersion and cavitation terms) =      1.202454 kcal/mol
 Solvation Energy Contributions (Hartrees)
          esola   esolb+esolc
     0.12970336   -0.25940671
 esol last cycle   -0.12970336

 Energy gradients wrt nuclear displacements
 ==========================================

     Atom      Cartesian (a.u./angstrom)
                 X         Y         Z
 ----------------------------------------
     1 Pa    0.000147 -0.000423  0.000439
     2 O    -0.000019 -0.000056  0.000107
     3 O    -0.000216  0.000348 -0.000348
     4 Cl   -0.000033 -0.000012  0.000161
     5 H     0.000076  0.000063  0.000134
     6 O     0.000024 -0.000081 -0.000140
     7 H    -0.000003  0.000128 -0.000029
     8 H     0.000010  0.000082 -0.000124
     9 H    -0.000014 -0.000075  0.000038
    10 O     0.000013  0.000017 -0.000152
    11 O     0.000087 -0.000097  0.000035
    12 H    -0.000078  0.000127 -0.000092
    13 H     0.000007  0.000158 -0.000139
    14 O    -0.000037 -0.000097  0.000074
    15 H     0.000036 -0.000004  0.000007
    16 H     0.000045 -0.000054 -0.000019
    17 H    -0.000045 -0.000025  0.000048
 ----------------------------------------
 Mulliken charges used for AMS results%charges...

 dE(predicted):    -0.26164E-06, dE(actual):     0.16808E-05, Trust radius:    0.020000, all in a.u.
 
----------------------------------------------------------------------
Geometry Convergence after Step  10       (Hartree/Angstrom,Angstrom)
----------------------------------------------------------------------
current energy                               -4.28938870 Hartree
energy change                       0.00000168     0.00001700    T
constrained gradient max            0.00042737     0.00010000    F
constrained gradient rms            0.00012598     0.00006667    F
gradient max                        0.00042737
gradient rms                        0.00012598
cart. step max                      0.00233410     0.00100000    F
cart. step rms                      0.00081691     0.00066667    F
 
 
--------
Geometry
--------
Formula: H9ClO6Pa
Atoms
  Index Symbol   x (angstrom)   y (angstrom)   z (angstrom)
      1     Pa    -0.29621467    -0.22769794     0.49033874       adf.R=2.200
      2      O     1.70097099     1.16811975     1.05101856       adf.R=1.517
      3      O    -0.48310661     0.72192205    -1.28277815       adf.R=1.517
      4     Cl    -1.21334179     1.86907967     1.92410512       adf.R=1.725
      5      H    -0.73401834     1.49341811    -1.80025152       adf.R=1.350
      6      O    -1.07879574    -2.26751473    -0.70080387       adf.R=1.517
      7      H    -1.25370680    -2.33944572    -1.64320459       adf.R=1.350
      8      H    -0.95311307    -3.16224292    -0.37302458       adf.R=1.350
      9      H     1.64882167     1.79818819     1.77538086       adf.R=1.350
     10      O    -0.03012353    -1.32472010     1.91741226       adf.R=1.517
     11      O     1.79111308    -1.21284857    -0.42785712       adf.R=1.517
     12      H     2.11089668    -1.11648163    -1.32920266       adf.R=1.350
     13      H     2.20835247    -2.00060613    -0.06851718       adf.R=1.350
     14      O    -2.78471038    -0.49129396     0.61470734       adf.R=1.517
     15      H    -3.19845604    -1.34996931     0.48866697       adf.R=1.350
     16      H    -3.28374188    -0.03161994     1.29579322       adf.R=1.350
     17      H     2.58333185     0.78669732     1.06745739       adf.R=1.350
 
Total System Charge             1.00000
Bonding info available!
 
 *** GO1_GOStep11 ***

 SOLVATION
-------------------------------------------

  The Delley construction of COSMO surface surface is calculated

       Division Level for Surface Triangles (NDIV)                  3
       Final Division Level for Triangles (NFDIV)                   1
       Radius of the Solvent (RSOL)                           1.93000 angstr
  Dielectric Constant (EPSL)                                 78.39000

       COSMO equation is solved iteratively-               conjugate-gradient

       Maximun of Iterations for Charges (NCIX)                  1000
       Criterion for Charge convergence (CCNV)                1.0E-08

  COSMO charges included variationally in SCF

       COSMO included at every SCF cycle

  Geometry-dependent empirical factor                         0.00000

  C-Matrix calculated in cspmtx

  In cspmtx, C-Matrix calculated using fitted potential

-------------------------------------------



 -------------------------------------------
  COSMO surface
  Area             =          643.343
  Volume           =         1162.094
  Number of Points =         1551
 -------------------------------------------
 
 RIHartreeFock Dependency: number of modified vectors:          78
 cosmo_calcen: 0.5 (esolb+esolc) (Hartrees) =   -0.129726

 Solvation energy (screening term,uncorrected) =    -81.404009 kcal/mol

 Solvation energy (dispersion and cavitation terms) =      1.203002 kcal/mol
 Solvation Energy Contributions (Hartrees)
          esola   esolb+esolc
     0.12972553   -0.25945107
 esol last cycle   -0.12972553
  
 Hartree-Fock exchange energy:   -547.117678388249     
 cosmo_calcen: 0.5 (esolb+esolc) (Hartrees) =   -0.129726

 Solvation energy (screening term,uncorrected) =    -81.403998 kcal/mol

 Solvation energy (dispersion and cavitation terms) =      1.203002 kcal/mol
 Solvation Energy Contributions (Hartrees)
          esola   esolb+esolc
     0.12972552   -0.25945103
 esol last cycle   -0.12972552

 Energy gradients wrt nuclear displacements
 ==========================================

     Atom      Cartesian (a.u./angstrom)
                 X         Y         Z
 ----------------------------------------
     1 Pa    0.000140 -0.000572  0.000462
     2 O    -0.000033 -0.000044  0.000098
     3 O    -0.000173  0.000279 -0.000214
     4 Cl    0.000002  0.000035  0.000097
     5 H     0.000072  0.000057  0.000141
     6 O     0.000000 -0.000020 -0.000102
     7 H    -0.000006  0.000094 -0.000020
     8 H     0.000016  0.000075 -0.000150
     9 H    -0.000026 -0.000095  0.000041
    10 O    -0.000009  0.000109 -0.000281
    11 O     0.000058 -0.000002  0.000037
    12 H     0.000087  0.000014 -0.000141
    13 H    -0.000146  0.000231 -0.000072
    14 O     0.000006 -0.000054  0.000047
    15 H     0.000082  0.000030 -0.000019
    16 H    -0.000014 -0.000116  0.000035
    17 H    -0.000055 -0.000018  0.000041
 ----------------------------------------
 Mulliken charges used for AMS results%charges...

 dE(predicted):    -0.42470E-06, dE(actual):     0.82719E-05, Trust radius:    0.020000, all in a.u.
 
----------------------------------------------------------------------
Geometry Convergence after Step  11       (Hartree/Angstrom,Angstrom)
----------------------------------------------------------------------
current energy                               -4.28938042 Hartree
energy change                       0.00000827     0.00001700    T
constrained gradient max            0.00055727     0.00010000    F
constrained gradient rms            0.00013510     0.00006667    F
gradient max                        0.00055727
gradient rms                        0.00013510
cart. step max                      0.00074894     0.00100000    T
cart. step rms                      0.00028834     0.00066667    T
 
 
--------
Geometry
--------
Formula: H9ClO6Pa
Atoms
  Index Symbol   x (angstrom)   y (angstrom)   z (angstrom)
      1     Pa    -0.29619611    -0.22750530     0.49038601       adf.R=2.200
      2      O     1.70108563     1.16835033     1.05101801       adf.R=1.517
      3      O    -0.48290308     0.72154751    -1.28269892       adf.R=1.517
      4     Cl    -1.21346826     1.86858899     1.92480463       adf.R=1.725
      5      H    -0.73448448     1.49266917    -1.80045427       adf.R=1.350
      6      O    -1.07879913    -2.26741142    -0.70059848       adf.R=1.517
      7      H    -1.25346259    -2.33962583    -1.64303963       adf.R=1.350
      8      H    -0.95303820    -3.16209911    -0.37267800       adf.R=1.350
      9      H     1.64909844     1.79802838     1.77574994       adf.R=1.350
     10      O    -0.03023947    -1.32481840     1.91735418       adf.R=1.517
     11      O     1.79107276    -1.21276332    -0.42783187       adf.R=1.517
     12      H     2.11096104    -1.11602904    -1.32904399       adf.R=1.350
     13      H     2.20809269    -2.00094884    -0.06894683       adf.R=1.350
     14      O    -2.78476257    -0.49091206     0.61439625       adf.R=1.517
     15      H    -3.19859123    -1.34953892     0.48803617       adf.R=1.350
     16      H    -3.28371612    -0.03158265     1.29576552       adf.R=1.350
     17      H     2.58350857     0.78703465     1.06702207       adf.R=1.350
 
Total System Charge             1.00000
Bonding info available!
 
 *** GO1_GOStep12 ***

 SOLVATION
-------------------------------------------

  The Delley construction of COSMO surface surface is calculated

       Division Level for Surface Triangles (NDIV)                  3
       Final Division Level for Triangles (NFDIV)                   1
       Radius of the Solvent (RSOL)                           1.93000 angstr
  Dielectric Constant (EPSL)                                 78.39000

       COSMO equation is solved iteratively-               conjugate-gradient

       Maximun of Iterations for Charges (NCIX)                  1000
       Criterion for Charge convergence (CCNV)                1.0E-08

  COSMO charges included variationally in SCF

       COSMO included at every SCF cycle

  Geometry-dependent empirical factor                         0.00000

  C-Matrix calculated in cspmtx

  In cspmtx, C-Matrix calculated using fitted potential

-------------------------------------------



 -------------------------------------------
  COSMO surface
  Area             =          643.346
  Volume           =         1162.094
  Number of Points =         1551
 -------------------------------------------
 
 RIHartreeFock Dependency: number of modified vectors:          78
 cosmo_calcen: 0.5 (esolb+esolc) (Hartrees) =   -0.129733

 Solvation energy (screening term,uncorrected) =    -81.408426 kcal/mol

 Solvation energy (dispersion and cavitation terms) =      1.203007 kcal/mol
 Solvation Energy Contributions (Hartrees)
          esola   esolb+esolc
     0.12973257   -0.25946514
 esol last cycle   -0.12973257
  
 Hartree-Fock exchange energy:   -547.117704639123     
 cosmo_calcen: 0.5 (esolb+esolc) (Hartrees) =   -0.129733

 Solvation energy (screening term,uncorrected) =    -81.408416 kcal/mol

 Solvation energy (dispersion and cavitation terms) =      1.203007 kcal/mol
 Solvation Energy Contributions (Hartrees)
          esola   esolb+esolc
     0.12973256   -0.25946511
 esol last cycle   -0.12973256

 Energy gradients wrt nuclear displacements
 ==========================================

     Atom      Cartesian (a.u./angstrom)
                 X         Y         Z
 ----------------------------------------
     1 Pa    0.000092 -0.000343  0.000209
     2 O    -0.000038 -0.000058  0.000071
     3 O    -0.000129  0.000104 -0.000005
     4 Cl    0.000006 -0.000008  0.000087
     5 H     0.000058  0.000088  0.000133
     6 O     0.000005  0.000051 -0.000065
     7 H    -0.000012  0.000068 -0.000043
     8 H     0.000019  0.000035 -0.000158
     9 H    -0.000026 -0.000080  0.000063
    10 O    -0.000002  0.000055 -0.000228
    11 O    -0.000003  0.000152 -0.000101
    12 H     0.000006  0.000099  0.000039
    13 H    -0.000014 -0.000011 -0.000109
    14 O     0.000047  0.000017  0.000054
    15 H     0.000044 -0.000021 -0.000018
    16 H    -0.000014 -0.000131  0.000028
    17 H    -0.000041 -0.000016  0.000043
 ----------------------------------------
 Mulliken charges used for AMS results%charges...

 dE(predicted):    -0.22463E-06, dE(actual):     0.10420E-05, Trust radius:    0.020000, all in a.u.
 
----------------------------------------------------------------------
Geometry Convergence after Step  12       (Hartree/Angstrom,Angstrom)
----------------------------------------------------------------------
current energy                               -4.28937938 Hartree
energy change                       0.00000104     0.00001700    T
constrained gradient max            0.00032686     0.00010000    F
constrained gradient rms            0.00007496     0.00006667    F
gradient max                        0.00032686
gradient rms                        0.00007496
cart. step max                      0.00142416     0.00100000    F
cart. step rms                      0.00044835     0.00066667    T
 
 
--------
Geometry
--------
Formula: H9ClO6Pa
Atoms
  Index Symbol   x (angstrom)   y (angstrom)   z (angstrom)
      1     Pa    -0.29616116    -0.22714435     0.49043362       adf.R=2.200
      2      O     1.70132913     1.16876130     1.05095265       adf.R=1.517
      3      O    -0.48283360     0.72124248    -1.28261539       adf.R=1.517
      4     Cl    -1.21384388     1.86758538     1.92622879       adf.R=1.725
      5      H    -0.73560069     1.49177994    -1.80074924       adf.R=1.350
      6      O    -1.07856688    -2.26717151    -0.70051804       adf.R=1.517
      7      H    -1.25272737    -2.33968307    -1.64306064       adf.R=1.350
      8      H    -0.95273185    -3.16179880    -0.37237598       adf.R=1.350
      9      H     1.64966942     1.79793162     1.77618529       adf.R=1.350
     10      O    -0.03037127    -1.32491744     1.91730045       adf.R=1.517
     11      O     1.79092677    -1.21293136    -0.42773190       adf.R=1.517
     12      H     2.11074079    -1.11638802    -1.32901141       adf.R=1.350
     13      H     2.20785207    -2.00121787    -0.06886192       adf.R=1.350
     14      O    -2.78484382    -0.49043270     0.61395249       adf.R=1.517
     15      H    -3.19890075    -1.34894885     0.48728367       adf.R=1.350
     16      H    -3.28363746    -0.03128233     1.29557821       adf.R=1.350
     17      H     2.58385845     0.78759972     1.06625013       adf.R=1.350
 
Total System Charge             1.00000
Bonding info available!
 
 *** GO1_GOStep13 ***

 SOLVATION
-------------------------------------------

  The Delley construction of COSMO surface surface is calculated

       Division Level for Surface Triangles (NDIV)                  3
       Final Division Level for Triangles (NFDIV)                   1
       Radius of the Solvent (RSOL)                           1.93000 angstr
  Dielectric Constant (EPSL)                                 78.39000

       COSMO equation is solved iteratively-               conjugate-gradient

       Maximun of Iterations for Charges (NCIX)                  1000
       Criterion for Charge convergence (CCNV)                1.0E-08

  COSMO charges included variationally in SCF

       COSMO included at every SCF cycle

  Geometry-dependent empirical factor                         0.00000

  C-Matrix calculated in cspmtx

  In cspmtx, C-Matrix calculated using fitted potential

-------------------------------------------



 -------------------------------------------
  COSMO surface
  Area             =          643.356
  Volume           =         1162.123
  Number of Points =         1550
 -------------------------------------------
 
 RIHartreeFock Dependency: number of modified vectors:          78
 cosmo_calcen: 0.5 (esolb+esolc) (Hartrees) =   -0.129742

 Solvation energy (screening term,uncorrected) =    -81.414499 kcal/mol

 Solvation energy (dispersion and cavitation terms) =      1.203025 kcal/mol
 Solvation Energy Contributions (Hartrees)
          esola   esolb+esolc
     0.12974225   -0.25948450
 esol last cycle   -0.12974225
  
 Hartree-Fock exchange energy:   -547.117577346918     
 cosmo_calcen: 0.5 (esolb+esolc) (Hartrees) =   -0.129742

 Solvation energy (screening term,uncorrected) =    -81.414487 kcal/mol

 Solvation energy (dispersion and cavitation terms) =      1.203025 kcal/mol
 Solvation Energy Contributions (Hartrees)
          esola   esolb+esolc
     0.12974223   -0.25948446
 esol last cycle   -0.12974223

 Energy gradients wrt nuclear displacements
 ==========================================

     Atom      Cartesian (a.u./angstrom)
                 X         Y         Z
 ----------------------------------------
     1 Pa    0.000028  0.000019 -0.000181
     2 O    -0.000054 -0.000067  0.000030
     3 O    -0.000077 -0.000117  0.000234
     4 Cl    0.000002 -0.000066  0.000085
     5 H     0.000034  0.000147  0.000108
     6 O     0.000020  0.000124 -0.000015
     7 H    -0.000021  0.000049 -0.000099
     8 H     0.000025 -0.000019 -0.000152
     9 H    -0.000025 -0.000048  0.000104
    10 O     0.000021 -0.000086 -0.000059
    11 O    -0.000066  0.000192 -0.000080
    12 H     0.000022  0.000096  0.000008
    13 H     0.000024 -0.000069 -0.000099
    14 O     0.000089  0.000077  0.000050
    15 H     0.000002 -0.000086 -0.000025
    16 H    -0.000027 -0.000120  0.000045
    17 H     0.000005 -0.000024  0.000048
 ----------------------------------------
 Mulliken charges used for AMS results%charges...

 dE(predicted):    -0.22881E-06, dE(actual):     0.14889E-05, Trust radius:    0.020000, all in a.u.
 
----------------------------------------------------------------------
Geometry Convergence after Step  13       (Hartree/Angstrom,Angstrom)
----------------------------------------------------------------------
current energy                               -4.28937789 Hartree
energy change                       0.00000149     0.00001700    T
constrained gradient max            0.00019199     0.00010000    F
constrained gradient rms            0.00006382     0.00006667    T
gradient max                        0.00019199
gradient rms                        0.00006382
cart. step max                      0.00154810     0.00100000    F
cart. step rms                      0.00051243     0.00066667    T
 
 
--------
Geometry
--------
Formula: H9ClO6Pa
Atoms
  Index Symbol   x (angstrom)   y (angstrom)   z (angstrom)
      1     Pa    -0.29611909    -0.22679123     0.49047838       adf.R=2.200
      2      O     1.70158342     1.16914056     1.05095119       adf.R=1.517
      3      O    -0.48279402     0.72125155    -1.28266343       adf.R=1.517
      4     Cl    -1.21416370     1.86658040     1.92777689       adf.R=1.725
      5      H    -0.73705043     1.49103284    -1.80123075       adf.R=1.350
      6      O    -1.07827727    -2.26704307    -0.70034074       adf.R=1.517
      7      H    -1.25178190    -2.33988584    -1.64298836       adf.R=1.350
      8      H    -0.95237869    -3.16152332    -0.37179626       adf.R=1.350
      9      H     1.65033783     1.79756318     1.77687785       adf.R=1.350
     10      O    -0.03049115    -1.32484343     1.91732921       adf.R=1.517
     11      O     1.79078159    -1.21311638    -0.42767022       adf.R=1.517
     12      H     2.11018492    -1.11686592    -1.32914116       adf.R=1.350
     13      H     2.20781432    -2.00132608    -0.06873198       adf.R=1.350
     14      O    -2.78494657    -0.48991137     0.61337269       adf.R=1.517
     15      H    -3.19919085    -1.34827538     0.48625436       adf.R=1.350
     16      H    -3.28350258    -0.03100133     1.29535331       adf.R=1.350
     17      H     2.58415204     0.78799895     1.06540980       adf.R=1.350
 
Total System Charge             1.00000
Bonding info available!
 
 *** GO1_GOStep14 ***

 SOLVATION
-------------------------------------------

  The Delley construction of COSMO surface surface is calculated

       Division Level for Surface Triangles (NDIV)                  3
       Final Division Level for Triangles (NFDIV)                   1
       Radius of the Solvent (RSOL)                           1.93000 angstr
  Dielectric Constant (EPSL)                                 78.39000

       COSMO equation is solved iteratively-               conjugate-gradient

       Maximun of Iterations for Charges (NCIX)                  1000
       Criterion for Charge convergence (CCNV)                1.0E-08

  COSMO charges included variationally in SCF

       COSMO included at every SCF cycle

  Geometry-dependent empirical factor                         0.00000

  C-Matrix calculated in cspmtx

  In cspmtx, C-Matrix calculated using fitted potential

-------------------------------------------



 -------------------------------------------
  COSMO surface
  Area             =          644.272
  Volume           =         1163.737
  Number of Points =         1552
 -------------------------------------------
 
 RIHartreeFock Dependency: number of modified vectors:          78
 cosmo_calcen: 0.5 (esolb+esolc) (Hartrees) =   -0.129756

 Solvation energy (screening term,uncorrected) =    -81.422900 kcal/mol

 Solvation energy (dispersion and cavitation terms) =      1.204739 kcal/mol
 Solvation Energy Contributions (Hartrees)
          esola   esolb+esolc
     0.12975564   -0.25951128
 esol last cycle   -0.12975564
  
 Hartree-Fock exchange energy:   -547.117405469309     
 cosmo_calcen: 0.5 (esolb+esolc) (Hartrees) =   -0.129756

 Solvation energy (screening term,uncorrected) =    -81.422890 kcal/mol

 Solvation energy (dispersion and cavitation terms) =      1.204739 kcal/mol
 Solvation Energy Contributions (Hartrees)
          esola   esolb+esolc
     0.12975562   -0.25951124
 esol last cycle   -0.12975562

 Energy gradients wrt nuclear displacements
 ==========================================

     Atom      Cartesian (a.u./angstrom)
                 X         Y         Z
 ----------------------------------------
     1 Pa    0.000007  0.000227 -0.000367
     2 O    -0.000049 -0.000052  0.000016
     3 O    -0.000062 -0.000191  0.000280
     4 Cl   -0.000008 -0.000101  0.000097
     5 H     0.000022  0.000172  0.000092
     6 O     0.000028  0.000121 -0.000013
     7 H    -0.000025  0.000055 -0.000122
[...]
  (c) -T*S:                             -0.064426890298398         -1.7531           -40.43          -169.15
      Gibbs free energy:                -4.221752992944831       -114.8797         -2649.19        -11084.21
 
 
 
  (c) The properties marked with this symbol have been corrected using 'low vibrational frequency free rotor
      interpolation corrections'. For those terms all positive frequencies are used (also ones below 20 1/cm),
      but the contribution to the partition function of small vibrational frequencies is modified as described
      in the following paper:
      S. Grimme, 'Supramolecular Binding Thermodynamics by Dispersion-Corrected Density Functional Theory'
      (Chem. Eur. J. 2012, 18, 9955-9964)
      Configuration: Dampener Frequency          :   100.000 1/cm
                     Dampener Alpha              :     4.000
                     Averaging Moment of Inertia : 1.000E-44 kg m2

--------------
Atomic charges
--------------
  Index   Atom    Charge
      1     Pa    4.7426
      2      O   -0.4875
      3      O   -1.2693
      4     Cl   -0.9350
      5      H    0.1597
      6      O   -0.3765
      7      H    0.1516
      8      H    0.2008
      9      H    0.2303
     10      O   -1.6088
     11      O   -0.3911
     12      H    0.1561
     13      H    0.2096
     14      O   -0.4796
     15      H    0.2324
     16      H    0.2284
     17      H    0.2363


Dipole moment vector    (Debye):     2.23682877   -8.95064750   -6.80452038
              magnitude (Debye):    11.46381225


-----------------------
Molecular orbitals info
-----------------------
n orbitals:              725
n spin:                    1

Note: only printing virtual orbitals with
      energy smaller than HOMO + 100. eV

HOMO (eV):              -8.5118
LUMO (eV):              -1.8427
HOMO-LUMO gap (eV):      6.6691

   Index   Energy (eV)    Occupation
     404       91.4181         0.000       
     403       91.1259         0.000       
     402       90.9401         0.000       
     401       90.4355         0.000       
     400       89.7524         0.000       
     399       89.4708         0.000       
     398       89.2167         0.000       
     397       88.6785         0.000       
     396       88.4314         0.000       
     395       87.7141         0.000       
     394       86.8598         0.000       
     393       86.7500         0.000       
     392       85.8390         0.000       
     391       85.6187         0.000       
     390       85.4807         0.000       
     389       85.2141         0.000       
     388       84.4753         0.000       
     387       82.9332         0.000       
     386       82.5159         0.000       
     385       82.3692         0.000       
     384       82.0192         0.000       
     383       81.9109         0.000       
     382       81.5570         0.000       
     381       80.4432         0.000       
     380       80.1304         0.000       
     379       79.7273         0.000       
     378       78.6442         0.000       
     377       77.3069         0.000       
     376       76.4877         0.000       
     375       75.6648         0.000       
     374       75.4973         0.000       
     373       73.7986         0.000       
     372       73.5168         0.000       
     371       73.0873         0.000       
     370       72.4527         0.000       
     369       72.3638         0.000       
     368       71.2234         0.000       
     367       70.0762         0.000       
     366       69.5159         0.000       
     365       69.4063         0.000       
     364       69.1469         0.000       
     363       68.8630         0.000       
     362       68.1467         0.000       
     361       67.7163         0.000       
     360       67.3050         0.000       
     359       67.0345         0.000       
     358       66.8497         0.000       
     357       66.6559         0.000       
     356       66.2167         0.000       
     355       66.0376         0.000       
     354       65.6399         0.000       
     353       65.5197         0.000       
     352       65.3369         0.000       
     351       64.7121         0.000       
     350       64.6180         0.000       
     349       63.9333         0.000       
     348       63.8619         0.000       
     347       63.3223         0.000       
     346       63.1950         0.000       
     345       63.0839         0.000       
     344       62.4487         0.000       
     343       62.3400         0.000       
     342       61.8183         0.000       
     341       61.7590         0.000       
     340       60.9770         0.000       
     339       60.8274         0.000       
     338       60.7703         0.000       
     337       60.0852         0.000       
     336       59.5818         0.000       
     335       59.3886         0.000       
     334       59.2155         0.000       
     333       58.8641         0.000       
     332       58.5001         0.000       
     331       57.8704         0.000       
     330       57.6933         0.000       
     329       57.5941         0.000       
     328       57.1787         0.000       
     327       57.0299         0.000       
     326       56.8092         0.000       
     325       56.2024         0.000       
     324       55.7081         0.000       
     323       55.6763         0.000       
     322       55.0257         0.000       
     321       54.6347         0.000       
     320       54.1053         0.000       
     319       53.9234         0.000       
     318       53.3756         0.000       
     317       52.8297         0.000       
     316       52.6946         0.000       
     315       52.2114         0.000       
     314       51.9213         0.000       
     313       51.4615         0.000       
     312       51.0356         0.000       
     311       50.7723         0.000       
     310       50.6149         0.000       
     309       50.4814         0.000       
     308       49.9920         0.000       
     307       49.6073         0.000       
     306       49.4622         0.000       
     305       49.0000         0.000       
     304       48.8698         0.000       
     303       48.4238         0.000       
     302       47.9854         0.000       
     301       47.9044         0.000       
     300       47.7634         0.000       
     299       47.2831         0.000       
     298       46.8984         0.000       
     297       46.4283         0.000       
     296       45.9795         0.000       
     295       45.8473         0.000       
     294       45.4182         0.000       
     293       45.2246         0.000       
     292       44.6026         0.000       
     291       44.4187         0.000       
     290       44.2184         0.000       
     289       43.9139         0.000       
     288       43.7250         0.000       
     287       43.5302         0.000       
     286       42.9621         0.000       
     285       42.6684         0.000       
     284       42.0166         0.000       
     283       41.8338         0.000       
     282       41.7628         0.000       
     281       41.2800         0.000       
     280       41.1849         0.000       
     279       40.4992         0.000       
     278       40.4085         0.000       
     277       39.9855         0.000       
     276       39.9157         0.000       
     275       39.7677         0.000       
     274       39.2152         0.000       
     273       39.0242         0.000       
     272       38.7580         0.000       
     271       38.5777         0.000       
     270       38.1230         0.000       
     269       38.0149         0.000       
     268       37.6878         0.000       
     267       37.3894         0.000       
     266       37.3091         0.000       
     265       37.1081         0.000       
     264       36.2404         0.000       
     263       36.1404         0.000       
     262       35.9446         0.000       
     261       35.9032         0.000       
     260       35.2535         0.000       
     259       35.1869         0.000       
     258       34.9991         0.000       
     257       34.6385         0.000       
     256       34.4684         0.000       
     255       34.2106         0.000       
     254       34.0748         0.000       
     253       34.0160         0.000       
     252       33.8544         0.000       
     251       33.2973         0.000       
     250       33.1494         0.000       
     249       32.7919         0.000       
     248       32.5076         0.000       
     247       32.3319         0.000       
     246       32.0785         0.000       
     245       31.8915         0.000       
     244       31.3891         0.000       
     243       31.1070         0.000       
     242       31.0244         0.000       
     241       30.5071         0.000       
     240       30.4746         0.000       
     239       30.3435         0.000       
     238       30.1911         0.000       
     237       30.0267         0.000       
     236       29.5510         0.000       
     235       29.2698         0.000       
     234       29.0738         0.000       
     233       28.7442         0.000       
     232       28.5439         0.000       
     231       28.3464         0.000       
     230       28.0561         0.000       
     229       27.7974         0.000       
     228       27.5148         0.000       
     227       27.1883         0.000       
     226       27.1595         0.000       
     225       26.6657         0.000       
     224       26.5981         0.000       
     223       26.5636         0.000       
     222       26.1970         0.000       
     221       26.0320         0.000       
     220       25.8988         0.000       
     219       25.8716         0.000       
     218       25.3618         0.000       
     217       24.9646         0.000       
     216       24.8673         0.000       
     215       24.7654         0.000       
     214       24.5091         0.000       
     213       24.2428         0.000       
     212       23.9303         0.000       
     211       23.7685         0.000       
     210       23.7406         0.000       
     209       23.4421         0.000       
     208       23.2855         0.000       
     207       23.0628         0.000       
     206       22.6690         0.000       
     205       22.3403         0.000       
     204       22.1946         0.000       
     203       22.1029         0.000       
     202       21.9868         0.000       
     201       21.8773         0.000       
     200       21.5687         0.000       
     199       21.5403         0.000       
     198       21.3310         0.000       
     197       20.9117         0.000       
     196       20.8419         0.000       
     195       20.7752         0.000       
     194       20.4614         0.000       
     193       20.3330         0.000       
     192       20.1767         0.000       
     191       19.9573         0.000       
     190       19.6505         0.000       
     189       19.5942         0.000       
     188       19.3987         0.000       
     187       18.8975         0.000       
     186       18.8424         0.000       
     185       18.6380         0.000       
     184       18.3282         0.000       
     183       18.2278         0.000       
     182       18.1164         0.000       
     181       17.8371         0.000       
     180       17.8000         0.000       
     179       17.3935         0.000       
     178       17.3388         0.000       
     177       16.8778         0.000       
     176       16.8509         0.000       
     175       16.7568         0.000       
     174       16.5004         0.000       
     173       16.0629         0.000       
     172       15.8483         0.000       
     171       15.5553         0.000       
     170       15.2687         0.000       
     169       15.0733         0.000       
     168       14.6383         0.000       
     167       14.4619         0.000       
     166       14.4231         0.000       
     165       14.3527         0.000       
     164       14.0083         0.000       
     163       13.5255         0.000       
     162       13.3590         0.000       
     161       13.0948         0.000       
     160       12.8303         0.000       
     159       12.6188         0.000       
     158       12.5835         0.000       
     157       12.4080         0.000       
     156       12.1380         0.000       
     155       11.7580         0.000       
     154       11.6412         0.000       
     153       11.5815         0.000       
     152       10.9797         0.000       
     151       10.6327         0.000       
     150       10.4349         0.000       
     149        9.9646         0.000       
     148        9.6617         0.000       
     147        9.5506         0.000       
     146        9.3848         0.000       
     145        9.3356         0.000       
     144        9.2119         0.000       
     143        8.8798         0.000       
     142        8.8792         0.000       
     141        8.7069         0.000       
     140        8.6495         0.000       
     139        8.5426         0.000       
     138        8.1196         0.000       
     137        8.0040         0.000       
     136        7.6074         0.000       
     135        7.5129         0.000       
     134        7.4730         0.000       
     133        7.3548         0.000       
     132        7.2219         0.000       
     131        6.9340         0.000       
     130        6.6754         0.000       
     129        6.5800         0.000       
     128        6.3457         0.000       
     127        6.2805         0.000       
     126        5.9619         0.000       
     125        5.9381         0.000       
     124        5.7858         0.000       
     123        5.5608         0.000       
     122        5.3455         0.000       
     121        5.2230         0.000       
     120        4.9661         0.000       
     119        4.8123         0.000       
     118        4.7507         0.000       
     117        4.6084         0.000       
     116        4.4053         0.000       
     115        4.3172         0.000       
     114        4.2215         0.000       
     113        3.6149         0.000       
     112        3.5614         0.000       
     111        3.5208         0.000       
     110        3.1426         0.000       
     109        2.9623         0.000       
     108        2.7993         0.000       
     107        2.7481         0.000       
     106        2.7183         0.000       
     105        2.6488         0.000       
     104        2.5107         0.000       
     103        2.2569         0.000       
     102        2.0748         0.000       
     101        1.7526         0.000       
     100        1.6163         0.000       
      99        1.4027         0.000       
      98        1.3422         0.000       
      97        1.2649         0.000       
      96        1.0630         0.000       
      95        0.9505         0.000       
      94        0.7969         0.000       
      93        0.5886         0.000       
      92        0.2539         0.000       
      91        0.2286         0.000       
      90        0.1458         0.000       
      89       -0.5861         0.000       
      88       -0.8591         0.000       
      87       -1.0511         0.000       
      86       -1.6794         0.000       
      85       -1.7166         0.000       
      84       -1.8081         0.000       
      83       -1.8427         0.000 < LUMO
      82       -8.5118         2.000 < HOMO
      81       -8.7560         2.000       
      80       -9.0995         2.000       
      79       -9.1604         2.000       
      78       -9.9730         2.000       
      77      -10.1865         2.000       
      76      -10.2132         2.000       
      75      -10.5069         2.000       
      74      -10.5774         2.000       
      73      -11.0009         2.000       
      72      -11.1121         2.000       
      71      -11.2168         2.000       
      70      -12.8509         2.000       
      69      -13.0621         2.000       
      68      -13.5626         2.000       
      67      -13.6872         2.000       
      66      -14.2488         2.000       
      65      -16.3569         2.000       
      64      -16.4127         2.000       
      63      -16.4664         2.000       
      62      -16.5333         2.000       
      61      -21.3694         2.000       
      60      -21.5320         2.000       
      59      -25.2790         2.000       
      58      -25.5640         2.000       
      57      -27.5884         2.000       
      56      -29.8433         2.000       
      55      -29.8625         2.000       
      54      -30.1411         2.000       
      53      -30.1660         2.000       
      52      -30.7985         2.000       
      51      -50.3815         2.000       
      50      -99.8428         2.000       
      49      -99.9000         2.000       
      48      -99.9076         2.000       
      47     -100.0495         2.000       
      46     -100.0541         2.000       
      45     -196.3721         2.000       
      44     -196.3796         2.000       
      43     -196.4067         2.000       
      42     -206.7831         2.000       
      41     -207.1671         2.000       
      40     -207.1704         2.000       
      39     -259.8886         2.000       
      38     -306.4086         2.000       
      37     -361.5175         2.000       
      36     -361.5664         2.000       
      35     -361.5711         2.000       
      34     -361.7606         2.000       
      33     -361.7632         2.000       
      32     -361.9615         2.000       
      31     -361.9617         2.000       
      30     -522.8940         2.000       
      29     -523.6614         2.000       
      28     -524.4945         2.000       
      27     -524.5111         2.000       
      26     -524.6740         2.000       
      25     -524.6883         2.000       
      24     -711.7510         2.000       
      23     -711.9504         2.000       
      22     -711.9537         2.000       
      21     -712.2317         2.000       
      20     -712.2362         2.000       
      19    -1039.8217         2.000       
      18    -1040.2820         2.000       
      17    -1040.2948         2.000       
      16    -1361.6433         2.000       
      15    -2776.4659         2.000       
      14    -3482.6521         2.000       
      13    -3482.7277         2.000       
      12    -3482.7285         2.000       
      11    -3482.8535         2.000       
      10    -3482.8552         2.000       
       9    -4344.1698         2.000       
       8    -4344.4220         2.000       
       7    -4344.4283         2.000       
       6    -5325.3388         2.000       
       5   -17557.0628         2.000       
       4   -17557.0905         2.000       
       3   -17557.1001         2.000       
       2   -21072.8055         2.000       
       1  -112933.9879         2.000       

Final PES point is a local minimum. Geometry optimization successful!


AMS application finished. Exiting.
NORMAL TERMINATION
     Total cpu time:  154074.70
  Total system time:    5555.86
 Total elapsed time:  159717.48
