

 Parallel Execution: Process Information
 ==============================================================================
 Rank   Node Name                              NodeID   MyNodeRank  NodeMaster
    0   don-0-0.local                             0          0          0
    1   don-0-0.local                             0          1         -1
    2   don-0-0.local                             1          0          1
    3   don-0-0.local                             1          1         -1
    4   don-0-0.local                             2          0          2
    5   don-0-0.local                             2          1         -1
    6   don-0-0.local                             3          0          3
    7   don-0-0.local                             3          1         -1
    8   don-0-0.local                             4          0          4
    9   don-0-0.local                             4          1         -1
   10   don-0-0.local                             5          0          5
   11   don-0-0.local                             5          1         -1
   12   don-0-0.local                             6          0          6
   13   don-0-0.local                             6          1         -1
   14   don-0-0.local                             7          0          7
   15   don-0-0.local                             7          1         -1
 ==============================================================================


May use up to 7811MB of RAM as shared memory on node 0
May use up to 7812MB of RAM as shared memory on node 4
May use up to 7812MB of RAM as shared memory on node 1
May use up to 7812MB of RAM as shared memory on node 3
May use up to 7812MB of RAM as shared memory on node 7
May use up to 7812MB of RAM as shared memory on node 6
May use up to 7812MB of RAM as shared memory on node 5
May use up to 7812MB of RAM as shared memory on node 2

 *******************************************************************************
 *                                                                             *
 *  --------------------------------                                           *
 *   Amsterdam Modeling Suite (AMS)              2023.104                      *
 *  --------------------------------                                           *
 *                                               r115785 2023-10-06            *
 *                                                                             *
 *                                                                             *
 *                              =================                              *
 *                              |               |                              *
 *                              |     A M S     |                              *
 *                              |               |                              *
 *                              =================                              *
 *                                                                             *
 *                                                                             *
 *   Online information and documentation:  https://www.scm.com/support/       *
 *   E-mail:  support@scm.com   info@scm.com                                   *
 *                                                                             *
 *   Scientific publications using AMS results must be properly referenced     *
 *   See the User Manuals (or the web site) for recommended citations          *
 *   The terms and conditions of the End User License Agreement apply to       *
 *   the use of AMS, https://www.scm.com/license-terms/                        *
 *                                                                             *
 **********************  x86_64_linux_intel / intelmpi  ************************
 
 Licensed to: Dr. Val?rie Vallet / Laboratoire PhLAM UMR 8523 / Villeneuve d'Ascq Cedex / FRANCE 2024-02-19 16:59:55
 SCM User ID: u10325
  
 AMS 2023.104  RunTime: Jun18-2024 12:06:36  ShM Nodes: 8  Procs: 16

 AMS jobname: pao_oh_cl_4h2o.SR.pbe0.tz2p.opt-freq-solvation
 AMS jobid  : 1996538218

 Start   directory: /home/shaaban/ams/PhD/geometries-exafs/pao_oh_cl_4h2o/PBE0/
 Results directory: /home/shaaban/ams/PhD/geometries-exafs/pao_oh_cl_4h2o/PBE0/pao_oh_cl_4h2o.SR.pbe0.tz2p.opt-freq-solvation.results/
 Scratch directory: /state/partition1/shaaban/1020963.phlam-s-sakura/amstmp_pao_oh_cl_4h2o.SR.pbe0.tz2p.opt-freq-solvation_kid0.1996538218/


 Communication costs MPI_COMM_WORLD:      9.302 usec per message,   0.0442 usec per 8-byte item
 Communication costs for intra-node:      1.258 usec per message,   0.0135 usec per 8-byte item

 RNG seed: -1926573137 -1154314230 1382504486 -1911133258 100310787 560423950 -161265193 -1728555280



                     *************************************************************************
                     *  ADF 2023.104  RunTime: Jun18-2024 12:06:37  ShM Nodes: 8  Procs: 16  *
                     *************************************************************************
  

       ***************************
       *  GEOMETRY OPTIMIZATION  *
       ***************************

Optimization Method                    Quasi Newton
Optimization Coordinates               Delocalized Coordinates
Optimize lattice                       F
 
 ------------------------------------------------------
 Convergence criteria (Hartree,Angstrom)
 ------------------------------------------------------
 Maximum gradient               0.000100000000
 Maximum rms gradient           0.000066666667
 Maximum step allowed           0.001000000000
 Maximum rms step allowed       0.000666666667
 Maximum energy change allowe   0.000017000000
 Maximum stress energy allowe   0.000500000000
 
Initial model Hessian                  Automatic Hessian
 
------------------------------------
Quasi-Newton Optimizer Parameters
------------------------------------
Hessian Update Method                  BFGS
Maximum number of steps                  250
First GDIIS cycle                          0
Maximum GDIIS vectors                      0
Trust radius (bohr)                        0.200000
Trust radius varies                        T
Constraints converged at all steps         T
Use projector                              T
 
 Rigid motions settings for: old optimizer
 Atomic rotations (x,y,z):     T T T
 Atomic translations (x,y,z):  T T T
 Tolerance:                   1.000000000000000E-006
 
--------
Geometry
--------
Formula: H9ClO6Pa
Atoms
  Index Symbol   x (angstrom)   y (angstrom)   z (angstrom)
      1     Pa    -0.31553642    -0.21541546     0.53022449       adf.R=2.200
      2      O     1.72574098     1.23065222     0.97991089       adf.R=1.517
      3      O    -0.48829236     0.70786750    -1.30429410       adf.R=1.517
      4     Cl    -1.23094352     1.90976717     1.92898096       adf.R=1.725
      5      H    -0.75807761     1.56820978    -1.67096257       adf.R=1.350
      6      O    -1.11001050    -2.28170680    -0.70377415       adf.R=1.517
      7      H    -1.15481970    -2.31772798    -1.67534736       adf.R=1.350
      8      H    -0.86631513    -3.17679263    -0.40992439       adf.R=1.350
      9      H     1.70335117     1.78963952     1.77573902       adf.R=1.350
     10      O    -0.05086151    -1.30852461     1.98739939       adf.R=1.517
     11      O     1.82410366    -1.22093057    -0.38483958       adf.R=1.517
     12      H     2.06307997    -1.18444799    -1.32752928       adf.R=1.350
     13      H     2.16491693    -2.06859015    -0.05060063       adf.R=1.350
     14      O    -2.84379103    -0.47105086     0.56381657       adf.R=1.517
     15      H    -3.20101488    -1.37159010     0.47278676       adf.R=1.350
     16      H    -3.31734607    -0.05964038     1.30725776       adf.R=1.350
     17      H     2.58997391     0.78326548     0.98039702       adf.R=1.350
 
Total System Charge             1.00000
Bonding info available!
 
 
----------------
ADF Engine Input
----------------
 
 Basis
 Type TZ2P
 Core None
 End
 XC
 Hybrid PBE0
 End
 Solvation
 Surf Delley
 Solv name=Water cav0=0.0 cav1=0.0067639
 Charged method=CONJ
 C-Mat POT
 SCF VAR ALL
 CSMRSP
 End
 NumericalQuality Good
 

 Title: *** (NO TITLE) ***

 Using automatic Hessian for delocalized coordinates.
 *** GO1_GOStep1 ***

 SOLVATION
-------------------------------------------

  The Delley construction of COSMO surface surface is calculated

       Division Level for Surface Triangles (NDIV)                  3
       Final Division Level for Triangles (NFDIV)                   1
       Radius of the Solvent (RSOL)                           1.93000 angstr
  Dielectric Constant (EPSL)                                 78.39000

       COSMO equation is solved iteratively-               conjugate-gradient

       Maximun of Iterations for Charges (NCIX)                  1000
       Criterion for Charge convergence (CCNV)                1.0E-08

  COSMO charges included variationally in SCF

       COSMO included at every SCF cycle

  Geometry-dependent empirical factor                         0.00000

  C-Matrix calculated in cspmtx

  In cspmtx, C-Matrix calculated using fitted potential

-------------------------------------------



 -------------------------------------------
  COSMO surface
  Area             =          648.436
  Volume           =         1186.037
  Number of Points =         1563
 -------------------------------------------



 ======================
 RI Hartree-Fock Scheme
 ======================
  
 Fit Set Quality     : GOOD
 Threshold Quality   : GOOD
 Integration Quality : GOOD
 Fit Generation Method : AUTO
 Response Quality    : DEFAULT
 Is Range Separated  :  F
 
 RIHartreeFock Dependency: number of modified vectors:          10
 cosmo_calcen: 0.5 (esolb+esolc) (Hartrees) =   -0.128559

 Solvation energy (screening term,uncorrected) =    -80.672292 kcal/mol

 Solvation energy (dispersion and cavitation terms) =      1.212525 kcal/mol
 Solvation Energy Contributions (Hartrees)
          esola   esolb+esolc
     0.12855947   -0.25711894
 esol last cycle   -0.12855947
  
 Hartree-Fock exchange energy:   -546.300249930004     
 cosmo_calcen: 0.5 (esolb+esolc) (Hartrees) =   -0.128559

 Solvation energy (screening term,uncorrected) =    -80.672257 kcal/mol

 Solvation energy (dispersion and cavitation terms) =      1.212525 kcal/mol
 Solvation Energy Contributions (Hartrees)
          esola   esolb+esolc
     0.12855941   -0.25711882
 esol last cycle   -0.12855941

 Energy gradients wrt nuclear displacements
 ==========================================

     Atom      Cartesian (a.u./angstrom)
                 X         Y         Z
 ----------------------------------------
     1 Pa   -0.003106  0.007443 -0.004274
     2 O    -0.006844  0.004450 -0.013750
     3 O     0.002486 -0.003347 -0.017770
     4 Cl   -0.003842  0.009074  0.006217
     5 H    -0.004254  0.013459 -0.004664
     6 O    -0.008304  0.009207  0.007510
     7 H    -0.000072 -0.000427 -0.016622
     8 H     0.004952 -0.015167  0.004720
     9 H    -0.000263  0.007926  0.013087
    10 O     0.005384 -0.021627  0.028742
    11 O    -0.000990  0.011400  0.008400
    12 H     0.003700  0.000327 -0.016272
    13 H     0.005121 -0.014447  0.005277
    14 O     0.004542  0.008059 -0.012611
    15 H    -0.005379 -0.014573 -0.000742
    16 H    -0.006832  0.005834  0.012136
    17 H     0.013703 -0.007592  0.000616
 ----------------------------------------
 Mulliken charges used for AMS results%charges...
 
----------------------------------------------------------------------
Geometry Convergence after Step   1       (Hartree/Angstrom,Angstrom)
----------------------------------------------------------------------
current energy                               -4.27543657 Hartree
energy change                      -4.27543657     0.00001700    F
constrained gradient max            0.02874086     0.00010000    F
constrained gradient rms            0.00995330     0.00006667    F
gradient max                        0.02874086
gradient rms                        0.00995330
cart. step max                      0.01710096     0.00100000    F
cart. step rms                      0.00601098     0.00066667    F
 
 
--------
Geometry
--------
Formula: H9ClO6Pa
Atoms
  Index Symbol   x (angstrom)   y (angstrom)   z (angstrom)
      1     Pa    -0.31411948    -0.21627241     0.52653622       adf.R=2.200
      2      O     1.72167850     1.22591009     0.98604073       adf.R=1.517
      3      O    -0.48655936     0.70474315    -1.29548905       adf.R=1.517
      4     Cl    -1.22808107     1.90380589     1.92097160       adf.R=1.725
      5      H    -0.75380285     1.55753572    -1.66123268       adf.R=1.350
      6      O    -1.10338139    -2.28141951    -0.70229636       adf.R=1.517
      7      H    -1.15213164    -2.32033380    -1.66490488       adf.R=1.350
      8      H    -0.86771565    -3.16892729    -0.40742912       adf.R=1.350
      9      H     1.69751115     1.78383039     1.77284967       adf.R=1.350
     10      O    -0.05206648    -1.30036869     1.97029843       adf.R=1.517
     11      O     1.81802988    -1.22247270    -0.39085329       adf.R=1.517
     12      H     2.05661336    -1.18457451    -1.32461273       adf.R=1.350
     13      H     2.16010777    -2.06046268    -0.05793824       adf.R=1.350
     14      O    -2.83769372    -0.47104329     0.56718444       adf.R=1.517
     15      H    -3.19551812    -1.36222874     0.47257193       adf.R=1.350
     16      H    -3.30923126    -0.06059661     1.30216746       adf.R=1.350
     17      H     2.58051823     0.78585913     0.98537667       adf.R=1.350
 
Total System Charge             1.00000
Bonding info available!
 
 *** GO1_GOStep2 ***

 SOLVATION
-------------------------------------------

  The Delley construction of COSMO surface surface is calculated

       Division Level for Surface Triangles (NDIV)                  3
       Final Division Level for Triangles (NFDIV)                   1
       Radius of the Solvent (RSOL)                           1.93000 angstr
  Dielectric Constant (EPSL)                                 78.39000

       COSMO equation is solved iteratively-               conjugate-gradient

       Maximun of Iterations for Charges (NCIX)                  1000
       Criterion for Charge convergence (CCNV)                1.0E-08

  COSMO charges included variationally in SCF

       COSMO included at every SCF cycle

  Geometry-dependent empirical factor                         0.00000

  C-Matrix calculated in cspmtx

  In cspmtx, C-Matrix calculated using fitted potential

-------------------------------------------



 -------------------------------------------
  COSMO surface
  Area             =          646.310
  Volume           =         1180.469
  Number of Points =         1556
 -------------------------------------------



 ======================
 RI Hartree-Fock Scheme
 ======================
  
 Fit Set Quality     : GOOD
 Threshold Quality   : GOOD
 Integration Quality : GOOD
 Fit Generation Method : AUTO
 Response Quality    : DEFAULT
 Is Range Separated  :  F
 
 RIHartreeFock Dependency: number of modified vectors:          10
 cosmo_calcen: 0.5 (esolb+esolc) (Hartrees) =   -0.127974

 Solvation energy (screening term,uncorrected) =    -80.304910 kcal/mol

 Solvation energy (dispersion and cavitation terms) =      1.208550 kcal/mol
 Solvation Energy Contributions (Hartrees)
          esola   esolb+esolc
     0.12797401   -0.25594801
 esol last cycle   -0.12797401
  
 Hartree-Fock exchange energy:   -546.361781186661     
 cosmo_calcen: 0.5 (esolb+esolc) (Hartrees) =   -0.127974

 Solvation energy (screening term,uncorrected) =    -80.304907 kcal/mol

 Solvation energy (dispersion and cavitation terms) =      1.208550 kcal/mol
 Solvation Energy Contributions (Hartrees)
          esola   esolb+esolc
     0.12797400   -0.25594800
 esol last cycle   -0.12797400

 Energy gradients wrt nuclear displacements
 ==========================================

     Atom      Cartesian (a.u./angstrom)
                 X         Y         Z
 ----------------------------------------
     1 Pa   -0.001028 -0.000606  0.006598
     2 O     0.003666  0.005113 -0.002666
     3 O    -0.000384  0.004274 -0.014754
     4 Cl   -0.002601  0.006210  0.004255
     5 H    -0.000380  0.001023  0.001164
     6 O    -0.004635 -0.003733 -0.001657
     7 H     0.000843 -0.000299 -0.001082
     8 H     0.001167 -0.000962 -0.000556
     9 H     0.000321 -0.000398  0.001531
    10 O     0.001877 -0.007448  0.009361
    11 O     0.006150  0.000017 -0.000505
    12 H    -0.000002 -0.000793 -0.001066
    13 H    -0.000118 -0.001323 -0.000464
    14 O    -0.005288  0.001335 -0.003480
    15 H    -0.000194 -0.001114  0.000888
    16 H    -0.000176 -0.000441  0.001497
    17 H     0.000782 -0.000853  0.000935
 ----------------------------------------
 Mulliken charges used for AMS results%charges...

 dE(predicted):    -0.11918E-02, dE(actual):    -0.15504E-02, Trust radius:    0.200000, all in a.u.
 
----------------------------------------------------------------------
Geometry Convergence after Step   2       (Hartree/Angstrom,Angstrom)
----------------------------------------------------------------------
current energy                               -4.27698695 Hartree
energy change                      -0.00155038     0.00001700    F
constrained gradient max            0.01474809     0.00010000    F
constrained gradient rms            0.00364096     0.00006667    F
gradient max                        0.01474809
gradient rms                        0.00364096
cart. step max                      0.01266964     0.00100000    F
cart. step rms                      0.00479400     0.00066667    F
 
 
--------
Geometry
--------
Formula: H9ClO6Pa
Atoms
  Index Symbol   x (angstrom)   y (angstrom)   z (angstrom)
      1     Pa    -0.31260590    -0.21663933     0.52165725       adf.R=2.200
      2      O     1.71765343     1.21887472     0.99398027       adf.R=1.517
      3      O    -0.48539713     0.70377234    -1.28712743       adf.R=1.517
      4     Cl    -1.22546532     1.89796128     1.91053863       adf.R=1.725
      5      H    -0.75136021     1.55297682    -1.65786309       adf.R=1.350
      6      O    -1.09634711    -2.28011417    -0.70050017       adf.R=1.517
      7      H    -1.15326134    -2.32311284    -1.66037476       adf.R=1.350
      8      H    -0.87301579    -3.16639225    -0.39916519       adf.R=1.350
      9      H     1.69134914     1.78244832     1.77426050       adf.R=1.350
     10      O    -0.05249182    -1.29438757     1.95762879       adf.R=1.517
     11      O     1.81102688    -1.22316105    -0.39728014       adf.R=1.517
     12      H     2.05353520    -1.18096283    -1.32768320       adf.R=1.350
     13      H     2.16027064    -2.05429891    -0.06041129       adf.R=1.350
     14      O    -2.83034884    -0.47247698     0.57177549       adf.R=1.517
     15      H    -3.19236469    -1.35902908     0.47014619       adf.R=1.350
     16      H    -3.30449687    -0.05780251     1.30007420       adf.R=1.350
     17      H     2.57747762     0.78532819     0.98958475       adf.R=1.350
 
Total System Charge             1.00000
Bonding info available!
 
 *** GO1_GOStep3 ***

 SOLVATION
-------------------------------------------

  The Delley construction of COSMO surface surface is calculated

       Division Level for Surface Triangles (NDIV)                  3
       Final Division Level for Triangles (NFDIV)                   1
       Radius of the Solvent (RSOL)                           1.93000 angstr
  Dielectric Constant (EPSL)                                 78.39000

       COSMO equation is solved iteratively-               conjugate-gradient

       Maximun of Iterations for Charges (NCIX)                  1000
       Criterion for Charge convergence (CCNV)                1.0E-08

  COSMO charges included variationally in SCF

       COSMO included at every SCF cycle

  Geometry-dependent empirical factor                         0.00000

  C-Matrix calculated in cspmtx

  In cspmtx, C-Matrix calculated using fitted potential

-------------------------------------------



 -------------------------------------------
  COSMO surface
  Area             =          643.710
  Volume           =         1174.523
  Number of Points =         1551
 -------------------------------------------



 ======================
 RI Hartree-Fock Scheme
 ======================
  
 Fit Set Quality     : GOOD
 Threshold Quality   : GOOD
 Integration Quality : GOOD
 Fit Generation Method : AUTO
 Response Quality    : DEFAULT
 Is Range Separated  :  F
 
 RIHartreeFock Dependency: number of modified vectors:          10
 cosmo_calcen: 0.5 (esolb+esolc) (Hartrees) =   -0.127592

 Solvation energy (screening term,uncorrected) =    -80.065035 kcal/mol

 Solvation energy (dispersion and cavitation terms) =      1.203688 kcal/mol
 Solvation Energy Contributions (Hartrees)
          esola   esolb+esolc
     0.12759174   -0.25518348
 esol last cycle   -0.12759174
  
 Hartree-Fock exchange energy:   -546.390052046165     
 cosmo_calcen: 0.5 (esolb+esolc) (Hartrees) =   -0.127592

 Solvation energy (screening term,uncorrected) =    -80.065032 kcal/mol

 Solvation energy (dispersion and cavitation terms) =      1.203688 kcal/mol
 Solvation Energy Contributions (Hartrees)
          esola   esolb+esolc
     0.12759174   -0.25518347
 esol last cycle   -0.12759174

 Energy gradients wrt nuclear displacements
 ==========================================

     Atom      Cartesian (a.u./angstrom)
                 X         Y         Z
 ----------------------------------------
     1 Pa   -0.000091 -0.004566  0.012096
     2 O     0.005672  0.004568  0.000586
     3 O    -0.000299  0.002403 -0.007605
     4 Cl   -0.001341  0.003295  0.002223
     5 H     0.000448 -0.001687  0.002700
     6 O    -0.003016 -0.006372 -0.003705
     7 H     0.000933  0.000362  0.002502
     8 H     0.000309  0.002449 -0.001193
     9 H    -0.000013 -0.002088 -0.001284
    10 O    -0.000563  0.002680 -0.004363
    11 O     0.006949 -0.002844 -0.002706
    12 H    -0.001136 -0.000532  0.002390
    13 H    -0.001513  0.001804 -0.001194
    14 O    -0.006872 -0.000357 -0.000602
    15 H     0.001386  0.001905  0.000822
    16 H     0.001630 -0.001460 -0.001115
    17 H    -0.002482  0.000438  0.000447
 ----------------------------------------
 Mulliken charges used for AMS results%charges...

 dE(predicted):    -0.32837E-03, dE(actual):    -0.41372E-03, Trust radius:    0.200000, all in a.u.
 
----------------------------------------------------------------------
Geometry Convergence after Step   3       (Hartree/Angstrom,Angstrom)
----------------------------------------------------------------------
current energy                               -4.27740068 Hartree
energy change                      -0.00041372     0.00001700    F
constrained gradient max            0.01209773     0.00010000    F
constrained gradient rms            0.00333549     0.00006667    F
gradient max                        0.01209773
gradient rms                        0.00333549
cart. step max                      0.01092553     0.00100000    F
cart. step rms                      0.00485684     0.00066667    F
 
 
--------
Geometry
--------
Formula: H9ClO6Pa
Atoms
  Index Symbol   x (angstrom)   y (angstrom)   z (angstrom)
      1     Pa    -0.31087103    -0.21671235     0.51583745       adf.R=2.200
      2      O     1.71421124     1.21006905     1.00301796       adf.R=1.517
      3      O    -0.48487321     0.70614197    -1.28149277       adf.R=1.517
      4     Cl    -1.22314602     1.89230401     1.90016189       adf.R=1.725
      5      H    -0.74952559     1.55208138    -1.66160283       adf.R=1.350
      6      O    -1.09043090    -2.27841886    -0.69782987       adf.R=1.517
      7      H    -1.15833512    -2.32778097    -1.65675699       adf.R=1.350
      8      H    -0.88287306    -3.16576915    -0.38823966       adf.R=1.350
      9      H     1.68622915     1.78194556     1.77716254       adf.R=1.350
     10      O    -0.05183054    -1.29232935     1.95083706       adf.R=1.517
     11      O     1.80443645    -1.22224727    -0.40398136       adf.R=1.517
     12      H     2.05386504    -1.17453183    -1.33239081       adf.R=1.350
     13      H     2.16413254    -2.04706262    -0.06228018       adf.R=1.350
     14      O    -2.82226253    -0.47526786     0.57656065       adf.R=1.517
     15      H    -3.19071730    -1.35823280     0.46686821       adf.R=1.350
     16      H    -3.30155091    -0.05504149     1.29826977       adf.R=1.350
     17      H     2.57769966     0.78383672     0.99509973       adf.R=1.350
 
Total System Charge             1.00000
Bonding info available!
 
 *** GO1_GOStep4 ***

 SOLVATION
-------------------------------------------

  The Delley construction of COSMO surface surface is calculated

       Division Level for Surface Triangles (NDIV)                  3
       Final Division Level for Triangles (NFDIV)                   1
       Radius of the Solvent (RSOL)                           1.93000 angstr
  Dielectric Constant (EPSL)                                 78.39000

       COSMO equation is solved iteratively-               conjugate-gradient

       Maximun of Iterations for Charges (NCIX)                  1000
       Criterion for Charge convergence (CCNV)                1.0E-08

  COSMO charges included variationally in SCF

       COSMO included at every SCF cycle

  Geometry-dependent empirical factor                         0.00000

  C-Matrix calculated in cspmtx

  In cspmtx, C-Matrix calculated using fitted potential

-------------------------------------------



 -------------------------------------------
  COSMO surface
  Area             =          641.424
  Volume           =         1169.359
  Number of Points =         1544
 -------------------------------------------



 ======================
 RI Hartree-Fock Scheme
 ======================
  
 Fit Set Quality     : GOOD
 Threshold Quality   : GOOD
 Integration Quality : GOOD
 Fit Generation Method : AUTO
 Response Quality    : DEFAULT
 Is Range Separated  :  F
 
 RIHartreeFock Dependency: number of modified vectors:          10
 cosmo_calcen: 0.5 (esolb+esolc) (Hartrees) =   -0.127542

 Solvation energy (screening term,uncorrected) =    -80.034037 kcal/mol

 Solvation energy (dispersion and cavitation terms) =      1.199413 kcal/mol
 Solvation Energy Contributions (Hartrees)
          esola   esolb+esolc
     0.12754234   -0.25508469
 esol last cycle   -0.12754234
  
 Hartree-Fock exchange energy:   -546.400031724414     
 cosmo_calcen: 0.5 (esolb+esolc) (Hartrees) =   -0.127542

 Solvation energy (screening term,uncorrected) =    -80.034034 kcal/mol

 Solvation energy (dispersion and cavitation terms) =      1.199413 kcal/mol
 Solvation Energy Contributions (Hartrees)
          esola   esolb+esolc
     0.12754234   -0.25508468
 esol last cycle   -0.12754234

 Energy gradients wrt nuclear displacements
 ==========================================

     Atom      Cartesian (a.u./angstrom)
                 X         Y         Z
 ----------------------------------------
     1 Pa   -0.000299 -0.003118  0.010087
     2 O     0.004521  0.003699  0.000845
     3 O     0.000562 -0.001578 -0.001005
     4 Cl   -0.000363  0.000929  0.000631
     5 H     0.000197 -0.000936  0.002541
     6 O    -0.002198 -0.005375 -0.003017
     7 H     0.000783  0.000807  0.002050
     8 H     0.000315  0.002195 -0.000622
     9 H    -0.000379 -0.001659 -0.001131
    10 O    -0.001370  0.005931 -0.008694
    11 O     0.005549 -0.002566 -0.002345
    12 H    -0.001250 -0.000117  0.001907
    13 H    -0.001433  0.001538 -0.000595
    14 O    -0.005463 -0.000308 -0.000164
    15 H     0.001457  0.001450  0.000388
    16 H     0.001573 -0.000927 -0.000921
    17 H    -0.002202  0.000035  0.000045
 ----------------------------------------
 Mulliken charges used for AMS results%charges...

 dE(predicted):    -0.16138E-03, dE(actual):    -0.20244E-03, Trust radius:    0.200000, all in a.u.
 
----------------------------------------------------------------------
Geometry Convergence after Step   4       (Hartree/Angstrom,Angstrom)
----------------------------------------------------------------------
current energy                               -4.27760312 Hartree
energy change                      -0.00020244     0.00001700    F
constrained gradient max            0.01008832     0.00010000    F
constrained gradient rms            0.00288886     0.00006667    F
gradient max                        0.01008832
gradient rms                        0.00288886
cart. step max                      0.01969954     0.00100000    F
cart. step rms                      0.00808335     0.00066667    F
 
 
--------
Geometry
--------
Formula: H9ClO6Pa
Atoms
  Index Symbol   x (angstrom)   y (angstrom)   z (angstrom)
      1     Pa    -0.30814459    -0.21711927     0.50687174       adf.R=2.200
      2      O     1.70975519     1.19464758     1.01767504       adf.R=1.517
      3      O    -0.48497301     0.71337573    -1.27708838       adf.R=1.517
      4     Cl    -1.21987413     1.88425094     1.88618807       adf.R=1.725
      5      H    -0.74674575     1.55245062    -1.67616429       adf.R=1.350
      6      O    -1.08330998    -2.27563735    -0.69324875       adf.R=1.517
      7      H    -1.17035182    -2.33668822    -1.65064981       adf.R=1.350
      8      H    -0.90257260    -3.16513835    -0.37103184       adf.R=1.350
      9      H     1.68045006     1.78031221     1.78202293       adf.R=1.350
     10      O    -0.04987858    -1.29317425     1.94579280       adf.R=1.517
     11      O     1.79557387    -1.21894296    -0.41373286       adf.R=1.517
     12      H     2.05865460    -1.16150966    -1.33856583       adf.R=1.350
     13      H     2.17341459    -2.03364255    -0.06543283       adf.R=1.350
     14      O    -2.80973330    -0.48111693     0.58428709       adf.R=1.517
     15      H    -3.18967622    -1.35819855     0.46247942       adf.R=1.350
     16      H    -3.29851214    -0.05224062     1.29509160       adf.R=1.350
     17      H     2.58008168     0.78135576     1.00474667       adf.R=1.350
 
Total System Charge             1.00000
Bonding info available!
 
 *** GO1_GOStep5 ***

 SOLVATION
-------------------------------------------

  The Delley construction of COSMO surface surface is calculated

       Division Level for Surface Triangles (NDIV)                  3
       Final Division Level for Triangles (NFDIV)                   1
       Radius of the Solvent (RSOL)                           1.93000 angstr
  Dielectric Constant (EPSL)                                 78.39000

       COSMO equation is solved iteratively-               conjugate-gradient

       Maximun of Iterations for Charges (NCIX)                  1000
       Criterion for Charge convergence (CCNV)                1.0E-08

  COSMO charges included variationally in SCF

       COSMO included at every SCF cycle

  Geometry-dependent empirical factor                         0.00000

  C-Matrix calculated in cspmtx

  In cspmtx, C-Matrix calculated using fitted potential

-------------------------------------------



 -------------------------------------------
  COSMO surface
  Area             =          638.810
  Volume           =         1163.182
  Number of Points =         1537
 -------------------------------------------



 ======================
 RI Hartree-Fock Scheme
 ======================
  
 Fit Set Quality     : GOOD
 Threshold Quality   : GOOD
 Integration Quality : GOOD
 Fit Generation Method : AUTO
 Response Quality    : DEFAULT
 Is Range Separated  :  F
 
 RIHartreeFock Dependency: number of modified vectors:          10
 cosmo_calcen: 0.5 (esolb+esolc) (Hartrees) =   -0.127773

 Solvation energy (screening term,uncorrected) =    -80.178715 kcal/mol

 Solvation energy (dispersion and cavitation terms) =      1.194526 kcal/mol
 Solvation Energy Contributions (Hartrees)
          esola   esolb+esolc
     0.12777290   -0.25554580
 esol last cycle   -0.12777290
  
 Hartree-Fock exchange energy:   -546.403915326171     
 cosmo_calcen: 0.5 (esolb+esolc) (Hartrees) =   -0.127773

 Solvation energy (screening term,uncorrected) =    -80.178718 kcal/mol

 Solvation energy (dispersion and cavitation terms) =      1.194526 kcal/mol
 Solvation Energy Contributions (Hartrees)
          esola   esolb+esolc
     0.12777291   -0.25554581
 esol last cycle   -0.12777291

 Energy gradients wrt nuclear displacements
 ==========================================

     Atom      Cartesian (a.u./angstrom)
                 X         Y         Z
 ----------------------------------------
     1 Pa   -0.001298  0.002234  0.002268
     2 O     0.001940  0.002183  0.000308
     3 O     0.001420 -0.005678  0.005490
     4 Cl    0.000734 -0.001760 -0.001171
     5 H    -0.000284  0.000572  0.001784
     6 O    -0.001270 -0.002485 -0.001253
     7 H     0.000553  0.000940  0.000475
     8 H     0.000427  0.000790  0.000191
     9 H    -0.000616 -0.000736 -0.000236
    10 O    -0.001133  0.004827 -0.006846
    11 O     0.002795 -0.001128 -0.000933
    12 H    -0.000929  0.000232  0.000388
    13 H    -0.000823  0.000347  0.000223
    14 O    -0.002537  0.000242 -0.000244
    15 H     0.001072  0.000162 -0.000061
    16 H     0.000835 -0.000163 -0.000108
    17 H    -0.000886 -0.000579 -0.000275
 ----------------------------------------
 Mulliken charges used for AMS results%charges...

 dE(predicted):    -0.18549E-03, dE(actual):    -0.26723E-03, Trust radius:    0.400000, all in a.u.
 
----------------------------------------------------------------------
Geometry Convergence after Step   5       (Hartree/Angstrom,Angstrom)
----------------------------------------------------------------------
current energy                               -4.27787035 Hartree
energy change                      -0.00026723     0.00001700    F
constrained gradient max            0.00684418     0.00010000    F
constrained gradient rms            0.00197541     0.00006667    F
gradient max                        0.00684418
gradient rms                        0.00197541
cart. step max                      0.02000823     0.00100000    F
cart. step rms                      0.00756573     0.00066667    F
 
 
--------
Geometry
--------
Formula: H9ClO6Pa
Atoms
  Index Symbol   x (angstrom)   y (angstrom)   z (angstrom)
      1     Pa    -0.30596365    -0.21846927     0.50050501       adf.R=2.200
      2      O     1.70704280     1.18072042     1.03019251       adf.R=1.517
      3      O    -0.48550116     0.72172580    -1.27766343       adf.R=1.517
      4     Cl    -1.21759232     1.87793776     1.87901578       adf.R=1.725
      5      H    -0.74375744     1.55286293    -1.69617252       adf.R=1.350
      6      O    -1.07945503    -2.27439076    -0.68882279       adf.R=1.517
      7      H    -1.18436594    -2.34581987    -1.64424431       adf.R=1.350
      8      H    -0.92127450    -3.16532309    -0.35723764       adf.R=1.350
      9      H     1.67767131     1.77873576     1.78552782       adf.R=1.350
     10      O    -0.04777492    -1.29721920     1.94415990       adf.R=1.517
     11      O     1.79015735    -1.21437040    -0.42134359       adf.R=1.517
     12      H     2.06647324    -1.14728766    -1.34223906       adf.R=1.350
     13      H     2.18432819    -2.02016844    -0.06904632       adf.R=1.350
     14      O    -2.80030732    -0.48664910     0.59083899       adf.R=1.517
     15      H    -3.19157857    -1.35784229     0.45939270       adf.R=1.350
     16      H    -3.29712469    -0.05043205     1.29208679       adf.R=1.350
     17      H     2.58318054     0.77897357     1.01429095       adf.R=1.350
 
Total System Charge             1.00000
Bonding info available!
 
 *** GO1_GOStep6 ***

 SOLVATION
-------------------------------------------

  The Delley construction of COSMO surface surface is calculated

       Division Level for Surface Triangles (NDIV)                  3
       Final Division Level for Triangles (NFDIV)                   1
       Radius of the Solvent (RSOL)                           1.93000 angstr
  Dielectric Constant (EPSL)                                 78.39000

       COSMO equation is solved iteratively-               conjugate-gradient

       Maximun of Iterations for Charges (NCIX)                  1000
       Criterion for Charge convergence (CCNV)                1.0E-08

  COSMO charges included variationally in SCF

       COSMO included at every SCF cycle

  Geometry-dependent empirical factor                         0.00000

  C-Matrix calculated in cspmtx

  In cspmtx, C-Matrix calculated using fitted potential

-------------------------------------------



 -------------------------------------------
  COSMO surface
  Area             =          639.452
  Volume           =         1162.311
  Number of Points =         1540
 -------------------------------------------



 ======================
 RI Hartree-Fock Scheme
 ======================
  
 Fit Set Quality     : GOOD
 Threshold Quality   : GOOD
 Integration Quality : GOOD
 Fit Generation Method : AUTO
 Response Quality    : DEFAULT
 Is Range Separated  :  F
 
 RIHartreeFock Dependency: number of modified vectors:          10
 cosmo_calcen: 0.5 (esolb+esolc) (Hartrees) =   -0.128125

 Solvation energy (screening term,uncorrected) =    -80.399934 kcal/mol

 Solvation energy (dispersion and cavitation terms) =      1.195726 kcal/mol
 Solvation Energy Contributions (Hartrees)
          esola   esolb+esolc
     0.12812544   -0.25625087
 esol last cycle   -0.12812544
  
 Hartree-Fock exchange energy:   -546.400757624255     
 cosmo_calcen: 0.5 (esolb+esolc) (Hartrees) =   -0.128125

 Solvation energy (screening term,uncorrected) =    -80.399932 kcal/mol

 Solvation energy (dispersion and cavitation terms) =      1.195726 kcal/mol
 Solvation Energy Contributions (Hartrees)
          esola   esolb+esolc
     0.12812543   -0.25625087
 esol last cycle   -0.12812543

 Energy gradients wrt nuclear displacements
 ==========================================

     Atom      Cartesian (a.u./angstrom)
                 X         Y         Z
 ----------------------------------------
     1 Pa   -0.001853  0.006048 -0.003548
     2 O    -0.000103  0.000757 -0.000560
     3 O     0.001509 -0.006019  0.006378
     4 Cl    0.001194 -0.002930 -0.001975
     5 H    -0.000549  0.001476  0.000956
     6 O    -0.000649 -0.000135  0.000357
     7 H     0.000317  0.000560 -0.000545
     8 H     0.000392 -0.000302  0.000346
     9 H    -0.000413 -0.000049  0.000638
    10 O    -0.000356  0.001296 -0.001679
    11 O     0.000586  0.000172  0.000298
    12 H    -0.000459  0.000180 -0.000613
    13 H    -0.000158 -0.000441  0.000469
    14 O    -0.000127  0.000680 -0.000613
    15 H     0.000388 -0.000724 -0.000206
    16 H     0.000140  0.000172  0.000542
    17 H     0.000140 -0.000741 -0.000245
 ----------------------------------------
 Mulliken charges used for AMS results%charges...

 dE(predicted):    -0.10832E-03, dE(actual):    -0.15140E-03, Trust radius:    0.400000, all in a.u.
 
----------------------------------------------------------------------
Geometry Convergence after Step   6       (Hartree/Angstrom,Angstrom)
----------------------------------------------------------------------
current energy                               -4.27802175 Hartree
energy change                      -0.00015140     0.00001700    F
constrained gradient max            0.00637275     0.00010000    F
constrained gradient rms            0.00177616     0.00006667    F
gradient max                        0.00637275
gradient rms                        0.00177616
cart. step max                      0.02164294     0.00100000    F
cart. step rms                      0.00643257     0.00066667    F
 
 
--------
Geometry
--------
Formula: H9ClO6Pa
Atoms
  Index Symbol   x (angstrom)   y (angstrom)   z (angstrom)
      1     Pa    -0.30432621    -0.22104762     0.49745345       adf.R=2.200
      2      O     1.70549687     1.17027203     1.04001388       adf.R=1.517
      3      O    -0.48606447     0.72826002    -1.28104003       adf.R=1.517
      4     Cl    -1.21586500     1.87321497     1.87928754       adf.R=1.725
      5      H    -0.74045304     1.55080802    -1.71781546       adf.R=1.350
      6      O    -1.07764480    -2.27432599    -0.68648976       adf.R=1.517
      7      H    -1.19724837    -2.35292148    -1.63978841       adf.R=1.350
      8      H    -0.93650016    -3.16606813    -0.34900181       adf.R=1.350
      9      H     1.67607750     1.77947796     1.78645347       adf.R=1.350
     10      O    -0.04560709    -1.30303914     1.94346368       adf.R=1.517
     11      O     1.78768607    -1.21063302    -0.42645977       adf.R=1.517
     12      H     2.07570931    -1.13405988    -1.34319081       adf.R=1.350
     13      H     2.19412299    -2.00983394    -0.07269982       adf.R=1.350
     14      O    -2.79445374    -0.49088338     0.59696103       adf.R=1.517
     15      H    -3.19566631    -1.35658991     0.45906347       adf.R=1.350
     16      H    -3.29723758    -0.04793367     1.28980229       adf.R=1.350
     17      H     2.58613192     0.77828731     1.02322784       adf.R=1.350
 
Total System Charge             1.00000
Bonding info available!
 
 *** GO1_GOStep7 ***

 SOLVATION
-------------------------------------------

  The Delley construction of COSMO surface surface is calculated

       Division Level for Surface Triangles (NDIV)                  3
       Final Division Level for Triangles (NFDIV)                   1
       Radius of the Solvent (RSOL)                           1.93000 angstr
  Dielectric Constant (EPSL)                                 78.39000

       COSMO equation is solved iteratively-               conjugate-gradient

       Maximun of Iterations for Charges (NCIX)                  1000
       Criterion for Charge convergence (CCNV)                1.0E-08

  COSMO charges included variationally in SCF

       COSMO included at every SCF cycle

  Geometry-dependent empirical factor                         0.00000

  C-Matrix calculated in cspmtx

  In cspmtx, C-Matrix calculated using fitted potential

-------------------------------------------



 -------------------------------------------
  COSMO surface
  Area             =          639.055
  Volume           =         1160.086
  Number of Points =         1537
 -------------------------------------------



 ======================
 RI Hartree-Fock Scheme
 ======================
  
 Fit Set Quality     : GOOD
 Threshold Quality   : GOOD
 Integration Quality : GOOD
 Fit Generation Method : AUTO
 Response Quality    : DEFAULT
 Is Range Separated  :  F
 
 RIHartreeFock Dependency: number of modified vectors:          10
 cosmo_calcen: 0.5 (esolb+esolc) (Hartrees) =   -0.128375

 Solvation energy (screening term,uncorrected) =    -80.556410 kcal/mol

 Solvation energy (dispersion and cavitation terms) =      1.194983 kcal/mol
 Solvation Energy Contributions (Hartrees)
          esola   esolb+esolc
     0.12837480   -0.25674959
 esol last cycle   -0.12837480
  
 Hartree-Fock exchange energy:   -546.396033769232     
 cosmo_calcen: 0.5 (esolb+esolc) (Hartrees) =   -0.128375

 Solvation energy (screening term,uncorrected) =    -80.556407 kcal/mol

 Solvation energy (dispersion and cavitation terms) =      1.194983 kcal/mol
 Solvation Energy Contributions (Hartrees)
          esola   esolb+esolc
     0.12837479   -0.25674958
 esol last cycle   -0.12837479

 Energy gradients wrt nuclear displacements
 ==========================================

     Atom      Cartesian (a.u./angstrom)
                 X         Y         Z
 ----------------------------------------
     1 Pa   -0.001738  0.006296 -0.004677
     2 O    -0.001128 -0.000010 -0.000905
     3 O     0.000876 -0.003385  0.003127
     4 Cl    0.001144 -0.002856 -0.001940
     5 H    -0.000455  0.001308  0.000502
     6 O    -0.000204  0.001052  0.001127
     7 H     0.000205  0.000070 -0.000800
     8 H     0.000192 -0.000672  0.000163
     9 H    -0.000029  0.000118  0.000811
    10 O     0.000302 -0.001553  0.002496
    11 O    -0.000578  0.000850  0.000886
    12 H    -0.000069 -0.000080 -0.000809
    13 H     0.000182 -0.000605  0.000261
    14 O     0.001050  0.000714 -0.000738
    15 H    -0.000033 -0.000802 -0.000089
    16 H    -0.000274  0.000087  0.000639
    17 H     0.000557 -0.000533 -0.000053
 ----------------------------------------
 Mulliken charges used for AMS results%charges...

 dE(predicted):    -0.67943E-04, dE(actual):    -0.11159E-03, Trust radius:    0.400000, all in a.u.
 
----------------------------------------------------------------------
Geometry Convergence after Step   7       (Hartree/Angstrom,Angstrom)
----------------------------------------------------------------------
current energy                               -4.27813334 Hartree
energy change                      -0.00011159     0.00001700    F
constrained gradient max            0.00629711     0.00010000    F
constrained gradient rms            0.00155874     0.00006667    F
gradient max                        0.00629711
gradient rms                        0.00155874
cart. step max                      0.01738699     0.00100000    F
cart. step rms                      0.00477628     0.00066667    F
 
 
--------
Geometry
--------
Formula: H9ClO6Pa
Atoms
  Index Symbol   x (angstrom)   y (angstrom)   z (angstrom)
      1     Pa    -0.30323029    -0.22424955     0.49706029       adf.R=2.200
      2      O     1.70458140     1.16451413     1.04640964       adf.R=1.517
      3      O    -0.48607075     0.73057112    -1.28413212       adf.R=1.517
      4     Cl    -1.21448955     1.87010924     1.88443151       adf.R=1.725
      5      H    -0.73718280     1.54570157    -1.73520245       adf.R=1.350
      6      O    -1.07729452    -2.27513400    -0.68649380       adf.R=1.517
      7      H    -1.20760163    -2.35668115    -1.63795959       adf.R=1.350
      8      H    -0.94555698    -3.16725930    -0.34665100       adf.R=1.350
      9      H     1.67413044     1.78257842     1.78524340       adf.R=1.350
     10      O    -0.04372053    -1.30868098     1.94180466       adf.R=1.517
     11      O     1.78751779    -1.20873889    -0.42920596       adf.R=1.517
     12      H     2.08401035    -1.12386151    -1.34231736       adf.R=1.350
     13      H     2.20131897    -2.00402577    -0.07553389       adf.R=1.350
     14      O    -2.79198313    -0.49291504     0.60204878       adf.R=1.517
     15      H    -3.20066879    -1.35429431     0.46068354       adf.R=1.350
     16      H    -3.29767677    -0.04419216     1.28878771       adf.R=1.350
     17      H     2.58807469     0.77954230     1.03026744       adf.R=1.350
 
Total System Charge             1.00000
Bonding info available!
 
 *** GO1_GOStep8 ***

 SOLVATION
-------------------------------------------

  The Delley construction of COSMO surface surface is calculated

       Division Level for Surface Triangles (NDIV)                  3
       Final Division Level for Triangles (NFDIV)                   1
       Radius of the Solvent (RSOL)                           1.93000 angstr
  Dielectric Constant (EPSL)                                 78.39000

       COSMO equation is solved iteratively-               conjugate-gradient

       Maximun of Iterations for Charges (NCIX)                  1000
       Criterion for Charge convergence (CCNV)                1.0E-08

  COSMO charges included variationally in SCF

       COSMO included at every SCF cycle

  Geometry-dependent empirical factor                         0.00000

  C-Matrix calculated in cspmtx

  In cspmtx, C-Matrix calculated using fitted potential

-------------------------------------------



 -------------------------------------------
  COSMO surface
  Area             =          640.374
  Volume           =         1161.768
  Number of Points =         1539
 -------------------------------------------



 ======================
 RI Hartree-Fock Scheme
 ======================
  
 Fit Set Quality     : GOOD
 Threshold Quality   : GOOD
 Integration Quality : GOOD
 Fit Generation Method : AUTO
 Response Quality    : DEFAULT
 Is Range Separated  :  F
 
 RIHartreeFock Dependency: number of modified vectors:          10
 cosmo_calcen: 0.5 (esolb+esolc) (Hartrees) =   -0.128406

 Solvation energy (screening term,uncorrected) =    -80.575775 kcal/mol

 Solvation energy (dispersion and cavitation terms) =      1.197450 kcal/mol
 Solvation Energy Contributions (Hartrees)
          esola   esolb+esolc
     0.12840566   -0.25681131
 esol last cycle   -0.12840566
  
 Hartree-Fock exchange energy:   -546.393735969340     
 cosmo_calcen: 0.5 (esolb+esolc) (Hartrees) =   -0.128406

 Solvation energy (screening term,uncorrected) =    -80.575768 kcal/mol

 Solvation energy (dispersion and cavitation terms) =      1.197450 kcal/mol
 Solvation Energy Contributions (Hartrees)
          esola   esolb+esolc
     0.12840565   -0.25681129
 esol last cycle   -0.12840565

 Energy gradients wrt nuclear displacements
 ==========================================

     Atom      Cartesian (a.u./angstrom)
                 X         Y         Z
 ----------------------------------------
     1 Pa   -0.001007  0.003828 -0.002199
     2 O    -0.001148 -0.000276 -0.000722
     3 O     0.000070 -0.000299 -0.000664
     4 Cl    0.000874 -0.002184 -0.001506
     5 H    -0.000202  0.000624  0.000422
     6 O    -0.000095  0.001144  0.001037
     7 H     0.000201 -0.000225 -0.000444
     8 H     0.000072 -0.000476 -0.000128
     9 H     0.000230  0.000000  0.000508
    10 O     0.000418 -0.002075  0.003386
    11 O    -0.000734  0.000901  0.000768
    12 H     0.000007 -0.000171 -0.000379
    13 H     0.000271 -0.000474 -0.000085
    14 O     0.001056  0.000490 -0.000581
    15 H    -0.000090 -0.000398  0.000037
    16 H    -0.000286 -0.000171  0.000406
    17 H     0.000363 -0.000238  0.000143
 ----------------------------------------
 Mulliken charges used for AMS results%charges...

 dE(predicted):    -0.34804E-04, dE(actual):    -0.57040E-04, Trust radius:    0.400000, all in a.u.
 
----------------------------------------------------------------------
Geometry Convergence after Step   8       (Hartree/Angstrom,Angstrom)
----------------------------------------------------------------------
current energy                               -4.27819038 Hartree
energy change                      -0.00005704     0.00001700    F
constrained gradient max            0.00383134     0.00010000    F
constrained gradient rms            0.00104140     0.00006667    F
gradient max                        0.00383134
gradient rms                        0.00104140
cart. step max                      0.01292177     0.00100000    F
cart. step rms                      0.00393095     0.00066667    F
 
 
--------
Geometry
--------
Formula: H9ClO6Pa
Atoms
  Index Symbol   x (angstrom)   y (angstrom)   z (angstrom)
      1     Pa    -0.30237509    -0.22752904     0.49772146       adf.R=2.200
      2      O     1.70358360     1.16217432     1.05044339       adf.R=1.517
      3      O    -0.48524964     0.72940775    -1.28550697       adf.R=1.517
      4     Cl    -1.21339577     1.86748213     1.89176887       adf.R=1.725
      5      H    -0.73375683     1.53831450    -1.74812421       adf.R=1.350
      6      O    -1.07741043    -2.27589647    -0.68848271       adf.R=1.517
      7      H    -1.21637655    -2.35741438    -1.63847956       adf.R=1.350
      8      H    -0.95103923    -3.16838533    -0.34821817       adf.R=1.350
      9      H     1.67116241     1.78703387     1.78316045       adf.R=1.350
     10      O    -0.04177521    -1.31411519     1.93877766       adf.R=1.517
     11      O     1.78833352    -1.20847376    -0.43047553       adf.R=1.517
     12      H     2.09126541    -1.11726021    -1.34066555       adf.R=1.350
     13      H     2.20659383    -2.00083666    -0.07629023       adf.R=1.350
     14      O    -2.79112098    -0.49368903     0.60665686       adf.R=1.517
     15      H    -3.20568412    -1.35172819     0.46381108       adf.R=1.350
     16      H    -3.29791487    -0.03921265     1.28846489       adf.R=1.350
     17      H     2.58931784     0.78311245     1.03467905       adf.R=1.350
 
Total System Charge             1.00000
Bonding info available!
 
 *** GO1_GOStep9 ***

 SOLVATION
-------------------------------------------

  The Delley construction of COSMO surface surface is calculated

       Division Level for Surface Triangles (NDIV)                  3
       Final Division Level for Triangles (NFDIV)                   1
       Radius of the Solvent (RSOL)                           1.93000 angstr
  Dielectric Constant (EPSL)                                 78.39000

       COSMO equation is solved iteratively-               conjugate-gradient

       Maximun of Iterations for Charges (NCIX)                  1000
       Criterion for Charge convergence (CCNV)                1.0E-08

  COSMO charges included variationally in SCF

       COSMO included at every SCF cycle

  Geometry-dependent empirical factor                         0.00000

  C-Matrix calculated in cspmtx

  In cspmtx, C-Matrix calculated using fitted potential

-------------------------------------------



 -------------------------------------------
  COSMO surface
  Area             =          641.571
  Volume           =         1161.765
  Number of Points =         1543
 -------------------------------------------



 ======================
 RI Hartree-Fock Scheme
 ======================
  
 Fit Set Quality     : GOOD
 Threshold Quality   : GOOD
 Integration Quality : GOOD
 Fit Generation Method : AUTO
 Response Quality    : DEFAULT
 Is Range Separated  :  F
 
 RIHartreeFock Dependency: number of modified vectors:          10
 cosmo_calcen: 0.5 (esolb+esolc) (Hartrees) =   -0.128336

 Solvation energy (screening term,uncorrected) =    -80.531876 kcal/mol

 Solvation energy (dispersion and cavitation terms) =      1.199689 kcal/mol
 Solvation Energy Contributions (Hartrees)
          esola   esolb+esolc
     0.12833570   -0.25667140
 esol last cycle   -0.12833570
  
 Hartree-Fock exchange energy:   -546.393826546727     
 cosmo_calcen: 0.5 (esolb+esolc) (Hartrees) =   -0.128336

 Solvation energy (screening term,uncorrected) =    -80.531877 kcal/mol

 Solvation energy (dispersion and cavitation terms) =      1.199689 kcal/mol
 Solvation Energy Contributions (Hartrees)
          esola   esolb+esolc
     0.12833570   -0.25667140
 esol last cycle   -0.12833570

 Energy gradients wrt nuclear displacements
 ==========================================

     Atom      Cartesian (a.u./angstrom)
                 X         Y         Z
 ----------------------------------------
     1 Pa   -0.000362  0.000880  0.001270
     2 O    -0.000728 -0.000285 -0.000387
     3 O    -0.000325  0.001479 -0.002944
     4 Cl    0.000595 -0.001466 -0.001020
     5 H    -0.000002  0.000058  0.000449
     6 O    -0.000029  0.000729  0.000589
     7 H     0.000176 -0.000287 -0.000032
     8 H     0.000016 -0.000109 -0.000252
     9 H     0.000318 -0.000172  0.000201
    10 O     0.000174 -0.001004  0.001968
    11 O    -0.000492  0.000469  0.000503
    12 H     0.000063 -0.000173 -0.000122
    13 H     0.000087 -0.000033 -0.000276
    14 O     0.000668  0.000267 -0.000282
    15 H     0.000012 -0.000025  0.000075
    16 H    -0.000159 -0.000341  0.000107
    17 H    -0.000011  0.000015  0.000154
 ----------------------------------------
 Mulliken charges used for AMS results%charges...

 dE(predicted):    -0.19931E-04, dE(actual):    -0.54033E-04, Trust radius:    0.400000, all in a.u.
 
----------------------------------------------------------------------
Geometry Convergence after Step   9       (Hartree/Angstrom,Angstrom)
----------------------------------------------------------------------
current energy                               -4.27824441 Hartree
energy change                      -0.00005403     0.00001700    F
constrained gradient max            0.00295355     0.00010000    F
constrained gradient rms            0.00071072     0.00006667    F
gradient max                        0.00295355
gradient rms                        0.00071072
cart. step max                      0.01156977     0.00100000    F
cart. step rms                      0.00446894     0.00066667    F
 
 
--------
Geometry
--------
Formula: H9ClO6Pa
Atoms
  Index Symbol   x (angstrom)   y (angstrom)   z (angstrom)
      1     Pa    -0.30127408    -0.23134675     0.49825784       adf.R=2.200
      2      O     1.70207008     1.16136126     1.05370815       adf.R=1.517
      3      O    -0.48402739     0.72612146    -1.28513721       adf.R=1.517
      4     Cl    -1.21216864     1.86409055     1.90065722       adf.R=1.725
      5      H    -0.73005989     1.52855450    -1.75969399       adf.R=1.350
      6      O    -1.07773145    -2.27653754    -0.69215052       adf.R=1.517
      7      H    -1.22598330    -2.35637318    -1.64068239       adf.R=1.350
      8      H    -0.95624689    -3.16962867    -0.35224248       adf.R=1.350
      9      H     1.66620719     1.79366862     1.77959112       adf.R=1.350
     10      O    -0.03896254    -1.32093661     1.93418188       adf.R=1.517
     11      O     1.78989275    -1.20935731    -0.43097645       adf.R=1.517
     12      H     2.09927374    -1.11189754    -1.33806582       adf.R=1.350
     13      H     2.21198792    -1.99891284    -0.07556780       adf.R=1.350
     14      O    -2.79043970    -0.49391678     0.61177998       adf.R=1.517
     15      H    -3.21135745    -1.34856700     0.46851665       adf.R=1.350
     16      H    -3.29738596    -0.03218832     1.28832039       adf.R=1.350
     17      H     2.59036350     0.78885028     1.03874422       adf.R=1.350
 
Total System Charge             1.00000
Bonding info available!
 
 *** GO1_GOStep10 ***

 SOLVATION
-------------------------------------------

  The Delley construction of COSMO surface surface is calculated

       Division Level for Surface Triangles (NDIV)                  3
       Final Division Level for Triangles (NFDIV)                   1
       Radius of the Solvent (RSOL)                           1.93000 angstr
  Dielectric Constant (EPSL)                                 78.39000

       COSMO equation is solved iteratively-               conjugate-gradient

       Maximun of Iterations for Charges (NCIX)                  1000
       Criterion for Charge convergence (CCNV)                1.0E-08

  COSMO charges included variationally in SCF

       COSMO included at every SCF cycle

  Geometry-dependent empirical factor                         0.00000

  C-Matrix calculated in cspmtx

  In cspmtx, C-Matrix calculated using fitted potential

-------------------------------------------



 -------------------------------------------
  COSMO surface
  Area             =          641.658
  Volume           =         1161.365
  Number of Points =         1542
 -------------------------------------------



 ======================
 RI Hartree-Fock Scheme
 ======================
  
 Fit Set Quality     : GOOD
 Threshold Quality   : GOOD
 Integration Quality : GOOD
 Fit Generation Method : AUTO
 Response Quality    : DEFAULT
 Is Range Separated  :  F
 
 RIHartreeFock Dependency: number of modified vectors:          10
 cosmo_calcen: 0.5 (esolb+esolc) (Hartrees) =   -0.128213

 Solvation energy (screening term,uncorrected) =    -80.454976 kcal/mol

 Solvation energy (dispersion and cavitation terms) =      1.199851 kcal/mol
 Solvation Energy Contributions (Hartrees)
          esola   esolb+esolc
     0.12821315   -0.25642630
 esol last cycle   -0.12821315
  
 Hartree-Fock exchange energy:   -546.394971397570     
 cosmo_calcen: 0.5 (esolb+esolc) (Hartrees) =   -0.128213

 Solvation energy (screening term,uncorrected) =    -80.454982 kcal/mol

 Solvation energy (dispersion and cavitation terms) =      1.199851 kcal/mol
 Solvation Energy Contributions (Hartrees)
          esola   esolb+esolc
     0.12821316   -0.25642632
 esol last cycle   -0.12821316

 Energy gradients wrt nuclear displacements
 ==========================================

     Atom      Cartesian (a.u./angstrom)
                 X         Y         Z
 ----------------------------------------
     1 Pa    0.000120 -0.001577  0.003797
     2 O    -0.000326 -0.000157  0.000006
     3 O    -0.000383  0.002069 -0.003683
     4 Cl    0.000326 -0.000763 -0.000522
     5 H     0.000106 -0.000246  0.000453
     6 O     0.000022  0.000198  0.000111
     7 H     0.000144 -0.000194  0.000229
     8 H    -0.000023  0.000196 -0.000216
     9 H     0.000279 -0.000261 -0.000060
    10 O    -0.000160  0.000517 -0.000167
    11 O    -0.000125  0.000151  0.000043
    12 H    -0.000037 -0.000149  0.000280
    13 H    -0.000047  0.000204 -0.000294
    14 O     0.000231  0.000107  0.000049
    15 H     0.000142  0.000192  0.000024
    16 H    -0.000018 -0.000383 -0.000128
    17 H    -0.000251  0.000095  0.000077
 ----------------------------------------
 Mulliken charges used for AMS results%charges...

 dE(predicted):    -0.15863E-04, dE(actual):    -0.38897E-04, Trust radius:    0.400000, all in a.u.
 
----------------------------------------------------------------------
Geometry Convergence after Step  10       (Hartree/Angstrom,Angstrom)
----------------------------------------------------------------------
current energy                               -4.27828331 Hartree
energy change                      -0.00003890     0.00001700    F
constrained gradient max            0.00379607     0.00010000    F
constrained gradient rms            0.00085897     0.00006667    F
gradient max                        0.00379607
gradient rms                        0.00085897
cart. step max                      0.01182182     0.00100000    F
cart. step rms                      0.00519991     0.00066667    F
 
 
--------
Geometry
--------
Formula: H9ClO6Pa
Atoms
  Index Symbol   x (angstrom)   y (angstrom)   z (angstrom)
      1     Pa    -0.29972645    -0.23572400     0.49833853       adf.R=2.200
      2      O     1.70001180     1.16115549     1.05693023       adf.R=1.517
      3      O    -0.48282348     0.72148879    -1.28293298       adf.R=1.517
      4     Cl    -1.21076877     1.85959881     1.91005642       adf.R=1.725
      5      H    -0.72628985     1.51673268    -1.77067800       adf.R=1.350
      6      O    -1.07804227    -2.27707530    -0.69675873       adf.R=1.517
      7      H    -1.23698161    -2.35443025    -1.64365073       adf.R=1.350
      8      H    -0.96195087    -3.17105977    -0.35759237       adf.R=1.350
      9      H     1.65924106     1.80193317     1.77495568       adf.R=1.350
     10      O    -0.03505223    -1.32963155     1.92888511       adf.R=1.517
     11      O     1.79180114    -1.21098591    -0.43149892       adf.R=1.517
     12      H     2.10834464    -1.10682567    -1.33527636       adf.R=1.350
     13      H     2.21800960    -1.99736125    -0.07414563       adf.R=1.350
     14      O    -2.78931637    -0.49375770     0.61725601       adf.R=1.517
     15      H    -3.21776554    -1.34459712     0.47435735       adf.R=1.350
     16      H    -3.29595836    -0.02291103     1.28759080       adf.R=1.350
     17      H     2.59142543     0.79643474     1.04340438       adf.R=1.350
 
Total System Charge             1.00000
Bonding info available!
 
 *** GO1_GOStep11 ***

 SOLVATION
-------------------------------------------

  The Delley construction of COSMO surface surface is calculated

       Division Level for Surface Triangles (NDIV)                  3
       Final Division Level for Triangles (NFDIV)                   1
       Radius of the Solvent (RSOL)                           1.93000 angstr
  Dielectric Constant (EPSL)                                 78.39000

       COSMO equation is solved iteratively-               conjugate-gradient

       Maximun of Iterations for Charges (NCIX)                  1000
       Criterion for Charge convergence (CCNV)                1.0E-08

  COSMO charges included variationally in SCF

       COSMO included at every SCF cycle

  Geometry-dependent empirical factor                         0.00000

  C-Matrix calculated in cspmtx

  In cspmtx, C-Matrix calculated using fitted potential

-------------------------------------------



 -------------------------------------------
  COSMO surface
  Area             =          642.344
  Volume           =         1161.742
  Number of Points =         1550
 -------------------------------------------



 ======================
 RI Hartree-Fock Scheme
 ======================
  
 Fit Set Quality     : GOOD
 Threshold Quality   : GOOD
 Integration Quality : GOOD
 Fit Generation Method : AUTO
 Response Quality    : DEFAULT
 Is Range Separated  :  F
 
 RIHartreeFock Dependency: number of modified vectors:          10
 cosmo_calcen: 0.5 (esolb+esolc) (Hartrees) =   -0.128139

 Solvation energy (screening term,uncorrected) =    -80.408432 kcal/mol

 Solvation energy (dispersion and cavitation terms) =      1.201133 kcal/mol
 Solvation Energy Contributions (Hartrees)
          esola   esolb+esolc
     0.12813898   -0.25627796
 esol last cycle   -0.12813898
  
 Hartree-Fock exchange energy:   -546.396062779243     
 cosmo_calcen: 0.5 (esolb+esolc) (Hartrees) =   -0.128139

 Solvation energy (screening term,uncorrected) =    -80.408433 kcal/mol

 Solvation energy (dispersion and cavitation terms) =      1.201133 kcal/mol
 Solvation Energy Contributions (Hartrees)
          esola   esolb+esolc
     0.12813898   -0.25627796
 esol last cycle   -0.12813898

 Energy gradients wrt nuclear displacements
 ==========================================

     Atom      Cartesian (a.u./angstrom)
                 X         Y         Z
 ----------------------------------------
     1 Pa    0.000445 -0.002639  0.004351
     2 O    -0.000116 -0.000087  0.000362
     3 O    -0.000291  0.001586 -0.002951
     4 Cl    0.000092 -0.000165 -0.000083
     5 H     0.000121 -0.000262  0.000368
     6 O     0.000068 -0.000151 -0.000276
     7 H     0.000074 -0.000077  0.000281
     8 H    -0.000016  0.000320 -0.000068
     9 H     0.000180 -0.000212 -0.000178
    10 O    -0.000360  0.001531 -0.001698
    11 O     0.000045 -0.000092 -0.000177
    12 H    -0.000067 -0.000030  0.000309
    13 H    -0.000097  0.000249 -0.000174
    14 O     0.000001  0.000015  0.000307
    15 H     0.000063  0.000211 -0.000064
    16 H     0.000165 -0.000270 -0.000242
    17 H    -0.000308  0.000075 -0.000068
 ----------------------------------------
 Mulliken charges used for AMS results%charges...

 dE(predicted):    -0.13290E-04, dE(actual):    -0.31578E-04, Trust radius:    0.400000, all in a.u.
 
----------------------------------------------------------------------
Geometry Convergence after Step  11       (Hartree/Angstrom,Angstrom)
----------------------------------------------------------------------
current energy                               -4.27831489 Hartree
energy change                      -0.00003158     0.00001700    F
constrained gradient max            0.00434994     0.00010000    F
constrained gradient rms            0.00093127     0.00006667    F
gradient max                        0.00434994
gradient rms                        0.00093127
cart. step max                      0.00704299     0.00100000    F
cart. step rms                      0.00317501     0.00066667    F
 
 
--------
Geometry
--------
Formula: H9ClO6Pa
Atoms
  Index Symbol   x (angstrom)   y (angstrom)   z (angstrom)
      1     Pa    -0.29861337    -0.23816328     0.49831390       adf.R=2.200
      2      O     1.69897953     1.16218396     1.05748673       adf.R=1.517
      3      O    -0.48209229     0.71828209    -1.28001633       adf.R=1.517
      4     Cl    -1.20998769     1.85677033     1.91546236       adf.R=1.725
      5      H    -0.72437629     1.50968968    -1.77485636       adf.R=1.350
      6      O    -1.07882488    -2.27698871    -0.69977856       adf.R=1.517
      7      H    -1.24379166    -2.35189277    -1.64585781       adf.R=1.350
      8      H    -0.96526585    -3.17186291    -0.36200212       adf.R=1.350
      9      H     1.65447558     1.80774081     1.77104252       adf.R=1.350
     10      O    -0.03224115    -1.33561499     1.92616169       adf.R=1.517
     11      O     1.79335287    -1.21255725    -0.43115317       adf.R=1.517
     12      H     2.11364579    -1.10534076    -1.33329145       adf.R=1.350
     13      H     2.22118850    -1.99744806    -0.07237504       adf.R=1.350
     14      O    -2.78868536    -0.49360207     0.61971117       adf.R=1.517
     15      H    -3.22066484    -1.34284720     0.47820353       adf.R=1.350
     16      H    -3.29519083    -0.01726299     1.28641400       adf.R=1.350
     17      H     2.59224983     0.80189824     1.04577574       adf.R=1.350
 
Total System Charge             1.00000
Bonding info available!
 
 *** GO1_GOStep12 ***

 SOLVATION
-------------------------------------------

  The Delley construction of COSMO surface surface is calculated

       Division Level for Surface Triangles (NDIV)                  3
       Final Division Level for Triangles (NFDIV)                   1
       Radius of the Solvent (RSOL)                           1.93000 angstr
  Dielectric Constant (EPSL)                                 78.39000

       COSMO equation is solved iteratively-               conjugate-gradient

       Maximun of Iterations for Charges (NCIX)                  1000
       Criterion for Charge convergence (CCNV)                1.0E-08

  COSMO charges included variationally in SCF

       COSMO included at every SCF cycle

  Geometry-dependent empirical factor                         0.00000

  C-Matrix calculated in cspmtx

  In cspmtx, C-Matrix calculated using fitted potential

-------------------------------------------



 -------------------------------------------
  COSMO surface
  Area             =          644.081
  Volume           =         1163.666
  Number of Points =         1559
 -------------------------------------------



 ======================
 RI Hartree-Fock Scheme
 ======================
  
 Fit Set Quality     : GOOD
 Threshold Quality   : GOOD
 Integration Quality : GOOD
 Fit Generation Method : AUTO
 Response Quality    : DEFAULT
 Is Range Separated  :  F
 
 RIHartreeFock Dependency: number of modified vectors:          10
 cosmo_calcen: 0.5 (esolb+esolc) (Hartrees) =   -0.128151

 Solvation energy (screening term,uncorrected) =    -80.416098 kcal/mol

 Solvation energy (dispersion and cavitation terms) =      1.204382 kcal/mol
 Solvation Energy Contributions (Hartrees)
          esola   esolb+esolc
     0.12815120   -0.25630239
 esol last cycle   -0.12815120
  
 Hartree-Fock exchange energy:   -546.395300663047     
 cosmo_calcen: 0.5 (esolb+esolc) (Hartrees) =   -0.128151

 Solvation energy (screening term,uncorrected) =    -80.416093 kcal/mol

 Solvation energy (dispersion and cavitation terms) =      1.204382 kcal/mol
 Solvation Energy Contributions (Hartrees)
          esola   esolb+esolc
     0.12815119   -0.25630237
 esol last cycle   -0.12815119

 Energy gradients wrt nuclear displacements
 ==========================================

     Atom      Cartesian (a.u./angstrom)
                 X         Y         Z
 ----------------------------------------
     1 Pa    0.000234 -0.001653  0.002632
     2 O    -0.000401  0.000001  0.000177
     3 O     0.000082  0.000173 -0.001359
     4 Cl   -0.000052  0.000106  0.000234
     5 H    -0.000027  0.000192  0.000162
     6 O     0.000007  0.000017 -0.000206
     7 H    -0.000005  0.000013 -0.000080
     8 H     0.000056 -0.000032  0.000134
     9 H     0.000083  0.000055  0.000076
    10 O    -0.000262  0.001236 -0.001517
    11 O    -0.000065  0.000121 -0.000006
    12 H     0.000021  0.000101 -0.000134
    13 H     0.000051 -0.000130  0.000051
    14 O     0.000234  0.000101  0.000057
    15 H    -0.000101 -0.000157 -0.000177
    16 H    -0.000074  0.000008  0.000099
    17 H     0.000220 -0.000153 -0.000144
 ----------------------------------------
 Mulliken charges used for AMS results%charges...

 dE(predicted):    -0.71876E-05, dE(actual):     0.43873E-03, Trust radius:    0.020000, all in a.u.
 
----------------------------------------------------------------------
Geometry Convergence after Step  12       (Hartree/Angstrom,Angstrom)
----------------------------------------------------------------------
current energy                               -4.27787615 Hartree
energy change                       0.00043873     0.00001700    F
constrained gradient max            0.00262929     0.00010000    F
constrained gradient rms            0.00056370     0.00006667    F
gradient max                        0.00262929
gradient rms                        0.00056370
cart. step max                      0.00302103     0.00100000    F
cart. step rms                      0.00143677     0.00066667    F
 
 
--------
Geometry
--------
Formula: H9ClO6Pa
Atoms
  Index Symbol   x (angstrom)   y (angstrom)   z (angstrom)
      1     Pa    -0.29786651    -0.23916579     0.49773382       adf.R=2.200
      2      O     1.69836926     1.16271719     1.05764289       adf.R=1.517
      3      O    -0.48219326     0.71757485    -1.27776446       adf.R=1.517
      4     Cl    -1.20956957     1.85583148     1.91559545       adf.R=1.725
      5      H    -0.72393252     1.50700549    -1.77596765       adf.R=1.350
      6      O    -1.07916841    -2.27663995    -0.70123534       adf.R=1.517
      7      H    -1.24655200    -2.35038470    -1.64690576       adf.R=1.350
      8      H    -0.96723614    -3.17196214    -0.36440205       adf.R=1.350
      9      H     1.65154057     1.80991460     1.76944661       adf.R=1.350
     10      O    -0.03065958    -1.33863603     1.92521228       adf.R=1.517
     11      O     1.79392837    -1.21367228    -0.43108628       adf.R=1.517
     12      H     2.11577569    -1.10587930    -1.33246385       adf.R=1.350
     13      H     2.22245864    -1.99755147    -0.07131708       adf.R=1.350
     14      O    -2.78787148    -0.49370112     0.62083440       adf.R=1.517
     15      H    -3.22110959    -1.34229798     0.48063598       adf.R=1.350
     16      H    -3.29411233    -0.01496867     1.28587674       adf.R=1.350
     17      H     2.59235674     0.80479994     1.04740509       adf.R=1.350
 
Total System Charge             1.00000
Bonding info available!
 
 *** GO1_GOStep13 ***

 SOLVATION
-------------------------------------------

  The Delley construction of COSMO surface surface is calculated

       Division Level for Surface Triangles (NDIV)                  3
       Final Division Level for Triangles (NFDIV)                   1
       Radius of the Solvent (RSOL)                           1.93000 angstr
  Dielectric Constant (EPSL)                                 78.39000

       COSMO equation is solved iteratively-               conjugate-gradient

       Maximun of Iterations for Charges (NCIX)                  1000
       Criterion for Charge convergence (CCNV)                1.0E-08

  COSMO charges included variationally in SCF

       COSMO included at every SCF cycle

  Geometry-dependent empirical factor                         0.00000

  C-Matrix calculated in cspmtx

  In cspmtx, C-Matrix calculated using fitted potential

-------------------------------------------



 -------------------------------------------
  COSMO surface
  Area             =          643.951
  Volume           =         1163.254
  Number of Points =         1558
 -------------------------------------------



 ======================
 RI Hartree-Fock Scheme
 ======================
  
 Fit Set Quality     : GOOD
 Threshold Quality   : GOOD
 Integration Quality : GOOD
 Fit Generation Method : AUTO
 Response Quality    : DEFAULT
 Is Range Separated  :  F
 
 RIHartreeFock Dependency: number of modified vectors:          10
 cosmo_calcen: 0.5 (esolb+esolc) (Hartrees) =   -0.128204

 Solvation energy (screening term,uncorrected) =    -80.449276 kcal/mol

 Solvation energy (dispersion and cavitation terms) =      1.204138 kcal/mol
 Solvation Energy Contributions (Hartrees)
          esola   esolb+esolc
     0.12820407   -0.25640814
 esol last cycle   -0.12820407
  
 Hartree-Fock exchange energy:   -546.396767233610     
 cosmo_calcen: 0.5 (esolb+esolc) (Hartrees) =   -0.128204

 Solvation energy (screening term,uncorrected) =    -80.449271 kcal/mol

 Solvation energy (dispersion and cavitation terms) =      1.204138 kcal/mol
 Solvation Energy Contributions (Hartrees)
          esola   esolb+esolc
     0.12820406   -0.25640812
 esol last cycle   -0.12820406

 Energy gradients wrt nuclear displacements
 ==========================================

     Atom      Cartesian (a.u./angstrom)
                 X         Y         Z
 ----------------------------------------
     1 Pa   -0.000046 -0.000133  0.000145
     2 O     0.000287 -0.000116  0.000575
     3 O     0.000091 -0.000204 -0.000159
     4 Cl   -0.000059  0.000118  0.000205
     5 H     0.000067 -0.000109  0.000335
     6 O     0.000098 -0.000372 -0.000396
     7 H     0.000029  0.000037  0.000300
     8 H    -0.000041  0.000356 -0.000019
     9 H     0.000071 -0.000177 -0.000259
    10 O    -0.000053  0.000406 -0.000549
    11 O     0.000264 -0.000364 -0.000300
    12 H    -0.000134  0.000069  0.000372
    13 H    -0.000170  0.000344 -0.000130
    14 O    -0.000213 -0.000384  0.000373
    15 H     0.000257  0.000510 -0.000096
    16 H     0.000122 -0.000143 -0.000235
    17 H    -0.000569  0.000163 -0.000163
 ----------------------------------------
 Mulliken charges used for AMS results%charges...

 dE(predicted):    -0.44830E-05, dE(actual):    -0.46592E-03, Trust radius:    0.040000, all in a.u.
 
----------------------------------------------------------------------
Geometry Convergence after Step  13       (Hartree/Angstrom,Angstrom)
----------------------------------------------------------------------
current energy                               -4.27834207 Hartree
energy change                      -0.00046592     0.00001700    F
constrained gradient max            0.00056501     0.00010000    F
constrained gradient rms            0.00026448     0.00006667    F
gradient max                        0.00056501
gradient rms                        0.00026448
cart. step max                      0.00257717     0.00100000    F
cart. step rms                      0.00092085     0.00066667    F
 
 
--------
Geometry
--------
Formula: H9ClO6Pa
Atoms
  Index Symbol   x (angstrom)   y (angstrom)   z (angstrom)
      1     Pa    -0.29770193    -0.23904735     0.49780120       adf.R=2.200
      2      O     1.69872968     1.16401541     1.05610094       adf.R=1.517
      3      O    -0.48277160     0.71804065    -1.27666278       adf.R=1.517
      4     Cl    -1.20973403     1.85650021     1.91400083       adf.R=1.725
      5      H    -0.72497120     1.50795667    -1.77414642       adf.R=1.350
      6      O    -1.07984979    -2.27622582    -0.70172675       adf.R=1.517
      7      H    -1.24593311    -2.34879654    -1.64786121       adf.R=1.350
      8      H    -0.96653182    -3.17208341    -0.36644310       adf.R=1.350
      9      H     1.65084144     1.81019902     1.76894311       adf.R=1.350
     10      O    -0.03036385    -1.33902041     1.92597619       adf.R=1.517
[...]
     4    Cl       0.000004   0.000013   0.000020
     5     H      -0.017866   0.056508  -0.037793
     6     O       0.000323  -0.000276   0.001874
     7     H      -0.005389  -0.001419  -0.028627
     8     H      -0.000181   0.006310  -0.000607
     9     H      -0.004975   0.077203   0.084639
    10     O       0.000013  -0.000011  -0.000073
    11     O      -0.000845   0.000263   0.001270
    12     H       0.008928   0.003280  -0.024568
    13     H       0.005453  -0.007063   0.005356
    14     O      -0.004861   0.058499   0.035701
    15     H      -0.296282  -0.575603  -0.078924
    16     H       0.375125  -0.355645  -0.490027
    17     H      -0.190492   0.079044  -0.002069
 
 Mode:    50      Frequency (cm-1):     3917.4043     Intensity (km/mol):      257.7712
 Index  Atom      ---- Displacements (x/y/z) ----
     1    Pa      -0.000007   0.000005  -0.000007
     2     O      -0.001252   0.002829   0.002527
     3     O       0.000474  -0.001152   0.000731
     4    Cl       0.000005   0.000004  -0.000001
     5     H      -0.007105   0.018760  -0.015437
     6     O      -0.000320   0.000049  -0.000458
     7     H       0.000738   0.000285   0.008692
     8     H       0.001201  -0.000967   0.002327
     9     H       0.004047  -0.039845  -0.043246
    10     O       0.000014  -0.000020  -0.000040
    11     O      -0.005074   0.040373  -0.056592
    12     H      -0.237692  -0.059816   0.648631
    13     H       0.321599  -0.582886   0.255794
    14     O      -0.001230   0.000721   0.001345
    15     H       0.002439   0.006637   0.000268
    16     H       0.017669  -0.017141  -0.023940
    17     H       0.015703  -0.005693   0.001446
 
 Mode:    51      Frequency (cm-1):     4049.6290     Intensity (km/mol):      122.5353
 Index  Atom      ---- Displacements (x/y/z) ----
     1    Pa      -0.000036   0.000023   0.000166
     2     O      -0.020213   0.003279  -0.007349
     3     O       0.007427  -0.022518   0.013769
     4    Cl       0.000135  -0.000408   0.000090
     5     H      -0.119634   0.369791  -0.241967
     6     O      -0.000151   0.012477   0.014975
     7     H      -0.056029  -0.010987  -0.320099
     8     H       0.046369  -0.191317   0.086557
     9     H      -0.014295   0.097858   0.102705
    10     O       0.000363  -0.000373  -0.000939
    11     O      -0.017242   0.014238   0.012320
    12     H       0.113086   0.046974  -0.329111
    13     H       0.173549  -0.267963   0.146912
    14     O       0.018364   0.009230  -0.010216
    15     H      -0.149526  -0.317123  -0.056855
    16     H      -0.154391   0.176810   0.208788
    17     H       0.346097  -0.154439   0.003800

 Vibrational polarizability tensor (a.u.):
                  X                   Y                   Z
 X            6701.73949          1796.17213           472.20142
 Y            1796.17213          3204.05307           304.60407
 Z             472.20142           304.60407          3057.66904

 Isotropic =      4321.2    atomic units

PES point character: Geometry corresponds to a local minimum on the PES.




 ============================
 Statistical Thermal Analysis  ***  ideal gas assumed  ***
 ============================
  
 Pressure:                  1.000000 atm.
 Temperature:             298.150000 K



 Moments of Inertia [amu*bohr^2] and principal axis
 ==================================================

        1553.5842       1950.9331       2584.6824
 ------------------------------------------------
          -0.3369          0.9349          0.1116
           0.7783          0.3432         -0.5258
           0.5299          0.0903          0.8433


 The rotational contribution to the molecular entropy includes
 a term, dependent on the symmetry number sigma. The results 
 reported below were computed using sigma = 1, determined from
 the point group symmetry of the input geometry (NOSYM). 
 If this is not the correct symmetry, try symmetrizing the molecule before
 running the calculation (note: linear molecules should be aligned along one
 of the Cartesian axes).
 Contributions from frequencies below 20 1/cm are not included in vibrational sums.
 Their contributions, if any, are reported separately.


     Temp                                                        Transl      Rotat     Vibrat     Total
     ----                                                        ------      -----     ------     -----

     298.15   Entropy (cal/mol-K):                               43.626     30.439     64.146    138.211
              Nuclear Internal Energy (kcal/mol):                 0.889      0.889     81.746     83.524
              Constant Volume Heat Capacity (cal/mol-K):          2.981      2.981     53.144     59.106
          (c) Constant Volume Heat Capacity (cal/mol-K):          2.981      2.981     48.113     54.074

       Summary of energy terms
                                                   hartree              eV         kcal/mol           kJ/mol
                                      --------------------     -----------       ----------      -----------
      Energy from Engine:               -4.278277553770157       -116.4179         -2684.66        -11232.62
      Nuclear Internal Energy:           0.133103658159396          3.6219            83.52           349.46
  (c) Nuclear Internal Energy:           0.130450754994575          3.5497            81.86           342.50
      Internal Energy U:                -4.145173895610760       -112.7959         -2601.14        -10883.15
      pV/n = RT:                         0.000944186013486          0.0257             0.59             2.48
      Enthalpy H:                       -4.144229709597274       -112.7702         -2600.54        -10880.67
      -T*S:                             -0.065668613851534         -1.7869           -41.21          -172.41
  (c) -T*S:                             -0.064152282113120         -1.7457           -40.26          -168.43
      Gibbs free energy:                -4.209898323448808       -114.5572         -2641.75        -11053.09
 
 
 
  (c) The properties marked with this symbol have been corrected using 'low vibrational frequency free rotor
      interpolation corrections'. For those terms all positive frequencies are used (also ones below 20 1/cm),
      but the contribution to the partition function of small vibrational frequencies is modified as described
      in the following paper:
      S. Grimme, 'Supramolecular Binding Thermodynamics by Dispersion-Corrected Density Functional Theory'
      (Chem. Eur. J. 2012, 18, 9955-9964)
      Configuration: Dampener Frequency          :   100.000 1/cm
                     Dampener Alpha              :     4.000
                     Averaging Moment of Inertia : 1.000E-44 kg m2

--------------
Atomic charges
--------------
  Index   Atom    Charge
      1     Pa    2.4974
      2      O   -0.4032
      3      O   -0.5970
      4     Cl   -0.5636
      5      H    0.1006
      6      O   -0.4098
      7      H    0.2422
      8      H    0.2502
      9      H    0.2451
     10      O   -0.7755
     11      O   -0.4097
     12      H    0.2418
     13      H    0.2509
     14      O   -0.4036
     15      H    0.2446
     16      H    0.2450
     17      H    0.2445


Dipole moment vector    (Debye):     2.17424465   -8.66330582   -6.63833595
              magnitude (Debye):    11.12868868


-----------------------
Molecular orbitals info
-----------------------
n orbitals:              424
n spin:                    1

Note: only printing virtual orbitals with
      energy smaller than HOMO + 100. eV

HOMO (eV):              -8.5627
LUMO (eV):              -1.8929
HOMO-LUMO gap (eV):      6.6698

   Index   Energy (eV)    Occupation
     272       90.6866         0.000       
     271       90.0240         0.000       
     270       88.1331         0.000       
     269       87.8747         0.000       
     268       87.0413         0.000       
     267       86.4437         0.000       
     266       85.4280         0.000       
     265       85.2227         0.000       
     264       85.1407         0.000       
     263       84.7374         0.000       
     262       83.8479         0.000       
     261       83.3694         0.000       
     260       83.3119         0.000       
     259       82.9082         0.000       
     258       82.4110         0.000       
     257       82.3970         0.000       
     256       80.9290         0.000       
     255       79.9242         0.000       
     254       77.7712         0.000       
     253       77.3894         0.000       
     252       76.6718         0.000       
     251       76.0471         0.000       
     250       75.5954         0.000       
     249       74.8540         0.000       
     248       74.2427         0.000       
     247       73.5524         0.000       
     246       73.2117         0.000       
     245       72.5235         0.000       
     244       71.7037         0.000       
     243       71.4766         0.000       
     242       70.3789         0.000       
     241       70.1993         0.000       
     240       70.0794         0.000       
     239       69.6759         0.000       
     238       67.8673         0.000       
     237       65.9442         0.000       
     236       65.1387         0.000       
     235       64.4859         0.000       
     234       63.5617         0.000       
     233       63.2022         0.000       
     232       61.9890         0.000       
     231       61.5588         0.000       
     230       60.0949         0.000       
     229       59.9641         0.000       
     228       59.1072         0.000       
     227       58.1702         0.000       
     226       56.3426         0.000       
     225       56.0842         0.000       
     224       55.3275         0.000       
     223       54.3231         0.000       
     222       53.9090         0.000       
     221       53.2952         0.000       
     220       52.6981         0.000       
     219       52.1478         0.000       
     218       50.7692         0.000       
     217       48.8974         0.000       
     216       48.6540         0.000       
     215       48.2148         0.000       
     214       48.1361         0.000       
     213       47.9995         0.000       
     212       47.2626         0.000       
     211       46.5202         0.000       
     210       46.4776         0.000       
     209       45.4710         0.000       
     208       45.3982         0.000       
     207       44.9364         0.000       
     206       43.6819         0.000       
     205       43.3153         0.000       
     204       43.0098         0.000       
     203       41.6086         0.000       
     202       41.5073         0.000       
     201       40.3424         0.000       
     200       40.0333         0.000       
     199       39.7530         0.000       
     198       39.2585         0.000       
     197       39.2062         0.000       
     196       38.2631         0.000       
     195       37.9873         0.000       
     194       37.9666         0.000       
     193       37.5849         0.000       
     192       37.5687         0.000       
     191       37.2147         0.000       
     190       36.8654         0.000       
     189       36.8341         0.000       
     188       36.2648         0.000       
     187       36.0954         0.000       
     186       35.8805         0.000       
     185       35.5489         0.000       
     184       35.3809         0.000       
     183       35.1154         0.000       
     182       34.4171         0.000       
     181       34.2902         0.000       
     180       33.9007         0.000       
     179       33.6223         0.000       
     178       33.3650         0.000       
     177       32.9609         0.000       
     176       32.5691         0.000       
     175       32.0067         0.000       
     174       31.9586         0.000       
     173       31.2580         0.000       
     172       30.1329         0.000       
     171       29.8760         0.000       
     170       27.6298         0.000       
     169       27.2149         0.000       
     168       26.7179         0.000       
     167       26.2978         0.000       
     166       25.4572         0.000       
     165       24.5885         0.000       
     164       24.2085         0.000       
     163       23.3568         0.000       
     162       22.4940         0.000       
     161       22.3422         0.000       
     160       22.1435         0.000       
     159       21.8829         0.000       
     158       20.6614         0.000       
     157       19.9673         0.000       
     156       19.5168         0.000       
     155       19.4507         0.000       
     154       19.1937         0.000       
     153       18.8819         0.000       
     152       17.8732         0.000       
     151       17.7968         0.000       
     150       17.3720         0.000       
     149       17.1287         0.000       
     148       16.7681         0.000       
     147       16.1840         0.000       
     146       16.1177         0.000       
     145       15.8931         0.000       
     144       15.7370         0.000       
     143       15.6028         0.000       
     142       15.2296         0.000       
     141       15.0584         0.000       
     140       14.9142         0.000       
     139       14.5108         0.000       
     138       14.4379         0.000       
     137       13.9612         0.000       
     136       13.7994         0.000       
     135       13.6648         0.000       
     134       13.6414         0.000       
     133       13.0463         0.000       
     132       12.6892         0.000       
     131       12.4754         0.000       
     130       12.3687         0.000       
     129       12.0414         0.000       
     128       11.6790         0.000       
     127       11.6297         0.000       
     126       10.5200         0.000       
     125       10.3294         0.000       
     124       10.1251         0.000       
     123        9.7728         0.000       
     122        9.7185         0.000       
     121        9.3806         0.000       
     120        9.0214         0.000       
     119        8.4104         0.000       
     118        8.0958         0.000       
     117        7.8202         0.000       
     116        7.7644         0.000       
     115        7.3508         0.000       
     114        6.9480         0.000       
     113        6.6453         0.000       
     112        5.6771         0.000       
     111        5.3468         0.000       
     110        5.1566         0.000       
     109        5.1170         0.000       
     108        4.4036         0.000       
     107        3.8032         0.000       
     106        3.6320         0.000       
     105        3.5221         0.000       
     104        3.3767         0.000       
     103        3.0529         0.000       
     102        2.2902         0.000       
     101        2.2521         0.000       
     100        2.1586         0.000       
      99        2.0068         0.000       
      98        1.9284         0.000       
      97        1.8662         0.000       
      96        1.6664         0.000       
      95        1.4526         0.000       
      94        1.1085         0.000       
      93        0.6864         0.000       
      92        0.4695         0.000       
      91        0.3674         0.000       
      90        0.1254         0.000       
      89       -0.5390         0.000       
      88       -0.9103         0.000       
      87       -1.1007         0.000       
      86       -1.7260         0.000       
      85       -1.7586         0.000       
      84       -1.8547         0.000       
      83       -1.8929         0.000 < LUMO
      82       -8.5627         2.000 < HOMO
      81       -8.8050         2.000       
      80       -9.1745         2.000       
      79       -9.2167         2.000       
      78      -10.0408         2.000       
      77      -10.2433         2.000       
      76      -10.2802         2.000       
      75      -10.5784         2.000       
      74      -10.6333         2.000       
      73      -11.0633         2.000       
      72      -11.1768         2.000       
      71      -11.2796         2.000       
      70      -12.9128         2.000       
      69      -13.1188         2.000       
      68      -13.6204         2.000       
      67      -13.7534         2.000       
      66      -14.3206         2.000       
      65      -16.4305         2.000       
      64      -16.4877         2.000       
      63      -16.5410         2.000       
      62      -16.6065         2.000       
      61      -21.4959         2.000       
      60      -21.6092         2.000       
      59      -25.4798         2.000       
      58      -25.7649         2.000       
      57      -27.6708         2.000       
      56      -29.9200         2.000       
      55      -29.9318         2.000       
      54      -30.2204         2.000       
      53      -30.2429         2.000       
      52      -30.9104         2.000       
      51      -50.4093         2.000       
      50     -100.1152         2.000       
      49     -100.1642         2.000       
      48     -100.1721         2.000       
      47     -100.3044         2.000       
      46     -100.3091         2.000       
      45     -196.2886         2.000       
      44     -196.2963         2.000       
      43     -196.3219         2.000       
      42     -207.1945         2.000       
      41     -207.5604         2.000       
      40     -207.5642         2.000       
      39     -259.8531         2.000       
      38     -305.9533         2.000       
      37     -361.1333         2.000       
      36     -361.1779         2.000       
      35     -361.1831         2.000       
      34     -361.3637         2.000       
      33     -361.3667         2.000       
      32     -361.5648         2.000       
      31     -361.5648         2.000       
      30     -522.9867         2.000       
      29     -523.7518         2.000       
      28     -524.6022         2.000       
      27     -524.6126         2.000       
      26     -524.7873         2.000       
      25     -524.7942         2.000       
      24     -712.9365         2.000       
      23     -713.1307         2.000       
      22     -713.1346         2.000       
      21     -713.4046         2.000       
      20     -713.4089         2.000       
      19    -1041.1984         2.000       
      18    -1041.6465         2.000       
      17    -1041.6561         2.000       
      16    -1359.6785         2.000       
      15    -2776.0340         2.000       
      14    -3484.8569         2.000       
      13    -3484.9327         2.000       
      12    -3484.9341         2.000       
      11    -3485.0583         2.000       
      10    -3485.0598         2.000       
       9    -4347.0469         2.000       
       8    -4347.2980         2.000       
       7    -4347.3026         2.000       
       6    -5318.2762         2.000       
       5   -17561.2315         2.000       
       4   -17561.2672         2.000       
       3   -17561.2676         2.000       
       2   -21037.0503         2.000       
       1  -112698.8592         2.000       

Final PES point is a local minimum. Geometry optimization successful!


AMS application finished. Exiting.
NORMAL TERMINATION
     Total cpu time:  227479.42
  Total system time:    3509.92
 Total elapsed time:  231441.98
