

 Parallel Execution: Process Information
 ==============================================================================
 Rank   Node Name                              NodeID   MyNodeRank  NodeMaster
    0   u-0-5.local                               0          0          0
    1   u-0-5.local                               0          1         -1
    2   u-0-5.local                               0          2         -1
    3   u-0-5.local                               0          3         -1
    4   u-0-5.local                               1          0          1
    5   u-0-5.local                               1          1         -1
    6   u-0-5.local                               1          2         -1
    7   u-0-5.local                               1          3         -1
    8   u-0-5.local                               2          0          2
    9   u-0-5.local                               2          1         -1
   10   u-0-5.local                               2          2         -1
   11   u-0-5.local                               2          3         -1
   12   u-0-5.local                               3          0          3
   13   u-0-5.local                               3          1         -1
   14   u-0-5.local                               3          2         -1
   15   u-0-5.local                               3          3         -1
 ==============================================================================


May use up to 31228MB of RAM as shared memory on node 0
May use up to 31250MB of RAM as shared memory on node 1
May use up to 31250MB of RAM as shared memory on node 2
May use up to 31250MB of RAM as shared memory on node 3

 *******************************************************************************
 *                                                                             *
 *  --------------------------------                                           *
 *   Amsterdam Modeling Suite (AMS)              2023.104                      *
 *  --------------------------------                                           *
 *                                               r115785 2023-10-06            *
 *                                                                             *
 *                                                                             *
 *                              =================                              *
 *                              |               |                              *
 *                              |     A M S     |                              *
 *                              |               |                              *
 *                              =================                              *
 *                                                                             *
 *                                                                             *
 *   Online information and documentation:  https://www.scm.com/support/       *
 *   E-mail:  support@scm.com   info@scm.com                                   *
 *                                                                             *
 *   Scientific publications using AMS results must be properly referenced     *
 *   See the User Manuals (or the web site) for recommended citations          *
 *   The terms and conditions of the End User License Agreement apply to       *
 *   the use of AMS, https://www.scm.com/license-terms/                        *
 *                                                                             *
 **********************  x86_64_linux_intel / intelmpi  ************************
 
 Licensed to: Dr. Val?rie Vallet / Laboratoire PhLAM UMR 8523 / Villeneuve d'Ascq Cedex / FRANCE 2024-02-19 16:59:55
 SCM User ID: u10325
  
 AMS 2023.104  RunTime: Jun20-2024 15:38:23  ShM Nodes: 4  Procs: 16

 AMS jobname: pao_cl5_h2o.pbe0.tz2p.opt-freq-solvation-nosym
 AMS jobid  : 1010820659

 Start   directory: /home/shaaban/ams/PhD/geometries-exafs/pao-chloride/pao_cl5_h2o/PBE0/
 Results directory: /home/shaaban/ams/PhD/geometries-exafs/pao-chloride/pao_cl5_h2o/PBE0/pao_cl5_h2o.pbe0.tz2p.opt-freq-solvation-nosym.results/
 Scratch directory: /state/partition2/shaaban/1021055.phlam-s-sakura/amstmp_pao_cl5_h2o.pbe0.tz2p.opt-freq-solvation-nosym_kid0.1010820659/


 Communication costs MPI_COMM_WORLD:     -1.429 usec per message,   0.0445 usec per 8-byte item
 Communication costs for intra-node:      0.083 usec per message,   0.0089 usec per 8-byte item

 RNG seed: -324329214 1708588935 1462505490 1788228947 783855239 936691396 1202549088 -233671182



                     *************************************************************************
                     *  ADF 2023.104  RunTime: Jun20-2024 15:38:24  ShM Nodes: 4  Procs: 16  *
                     *************************************************************************
  

       ***************************
       *  GEOMETRY OPTIMIZATION  *
       ***************************

Optimization Method                    Quasi Newton
Optimization Coordinates               Delocalized Coordinates
Optimize lattice                       F
 
 ------------------------------------------------------
 Convergence criteria (Hartree,Angstrom)
 ------------------------------------------------------
 Maximum gradient               0.000100000000
 Maximum rms gradient           0.000066666667
 Maximum step allowed           0.001000000000
 Maximum rms step allowed       0.000666666667
 Maximum energy change allowe   0.000010000000
 Maximum stress energy allowe   0.000500000000
 
Initial model Hessian                  Automatic Hessian
 
------------------------------------
Quasi-Newton Optimizer Parameters
------------------------------------
Hessian Update Method                  BFGS
Maximum number of steps                  250
First GDIIS cycle                          0
Maximum GDIIS vectors                      0
Trust radius (bohr)                        0.200000
Trust radius varies                        T
Constraints converged at all steps         T
Use projector                              T
 
 Rigid motions settings for: old optimizer
 Atomic rotations (x,y,z):     T T T
 Atomic translations (x,y,z):  T T T
 Tolerance:                   1.000000000000000E-006
 
--------
Geometry
--------
Formula: H2Cl5O2Pa
Atoms
  Index Symbol   x (angstrom)   y (angstrom)   z (angstrom)
      1     Pa    -0.08863151     0.57967401     1.25022506       adf.R=2.200
      2     Cl     0.10782749     2.70306110    -0.43992277       adf.R=1.725
      3     Cl    -0.03405253    -0.56985061     3.76501542       adf.R=1.725
      4     Cl     0.10916932     2.70602263     2.93652790       adf.R=1.725
      5     Cl    -0.03228392    -0.57219934    -1.26370678       adf.R=1.725
      6     Cl     2.53200304     0.37613440     1.25091619       adf.R=1.725
      7      O    -1.91548492     0.61840531     1.25012734       adf.R=1.517
      8      O    -0.16342550    -1.98642100     1.24964447       adf.R=1.517
      9      H     0.19177345    -2.41228779     0.46113834       adf.R=1.350
     10      H     0.19594268    -2.41928464     2.03272888       adf.R=1.350
 
Total System Charge            -2.00000
Bonding info available!
 
 
----------------
ADF Engine Input
----------------
 
 Basis
 Type TZ2P
 Core None
 End
 XC
 Hybrid PBE0
 End
 Symmetry NOSYM
 Solvation
 Surf Delley
 Solv name=Water cav0=0.0 cav1=0.0067639
 Charged method=CONJ
 C-Mat POT
 SCF VAR ALL
 CSMRSP
 End
 NumericalQuality Good
 NOSYMFIT
 

 Title: *** (NO TITLE) ***

 Using automatic Hessian for delocalized coordinates.
 *** GO1_GOStep1 ***

 SOLVATION
-------------------------------------------

  The Delley construction of COSMO surface surface is calculated

       Division Level for Surface Triangles (NDIV)                  3
       Final Division Level for Triangles (NFDIV)                   1
       Radius of the Solvent (RSOL)                           1.93000 angstr
  Dielectric Constant (EPSL)                                 78.39000

       COSMO equation is solved iteratively-               conjugate-gradient

       Maximun of Iterations for Charges (NCIX)                  1000
       Criterion for Charge convergence (CCNV)                1.0E-08

  COSMO charges included variationally in SCF

       COSMO included at every SCF cycle

  Geometry-dependent empirical factor                         0.00000

  C-Matrix calculated in cspmtx

  In cspmtx, C-Matrix calculated using fitted potential

-------------------------------------------



 -------------------------------------------
  COSMO surface
  Area             =          620.662
  Volume           =         1148.384
  Number of Points =         1422
 -------------------------------------------



 ======================
 RI Hartree-Fock Scheme
 ======================
  
 Fit Set Quality     : GOOD
 Threshold Quality   : GOOD
 Integration Quality : GOOD
 Fit Generation Method : AUTO
 Response Quality    : DEFAULT
 Is Range Separated  :  F
 
 RIHartreeFock Dependency: number of modified vectors:           7
 cosmo_calcen: 0.5 (esolb+esolc) (Hartrees) =   -0.292993

 Solvation energy (screening term,uncorrected) =   -183.855788 kcal/mol

 Solvation energy (dispersion and cavitation terms) =      1.160591 kcal/mol
 Solvation Energy Contributions (Hartrees)
          esola   esolb+esolc
     0.29299282   -0.58598563
 esol last cycle   -0.29299282
  
 Hartree-Fock exchange energy:   -622.394485634660     
 cosmo_calcen: 0.5 (esolb+esolc) (Hartrees) =   -0.292993

 Solvation energy (screening term,uncorrected) =   -183.855779 kcal/mol

 Solvation energy (dispersion and cavitation terms) =      1.160591 kcal/mol
 Solvation Energy Contributions (Hartrees)
          esola   esolb+esolc
     0.29299280   -0.58598561
 esol last cycle   -0.29299280

 Energy gradients wrt nuclear displacements
 ==========================================

     Atom      Cartesian (a.u./angstrom)
                 X         Y         Z
 ----------------------------------------
     1 Pa    0.000035 -0.000016 -0.000119
     2 Cl    0.000080 -0.000013 -0.000030
     3 Cl   -0.000038 -0.000007  0.000058
     4 Cl    0.000104  0.000052  0.000019
     5 Cl   -0.000022  0.000011  0.000100
     6 Cl    0.000023 -0.000087  0.000007
     7 O     0.000056  0.000068  0.000013
     8 O    -0.000071 -0.000023 -0.000508
     9 H    -0.000294  0.000360  0.000210
    10 H     0.000127 -0.000345  0.000250
 ----------------------------------------
 Mulliken charges used for AMS results%charges...
 
----------------------------------------------------------------------
Geometry Convergence after Step   1       (Hartree/Angstrom,Angstrom)
----------------------------------------------------------------------
current energy                               -2.81422362 Hartree
energy change                      -2.81422362     0.00001000    F
constrained gradient max            0.00050173     0.00010000    F
constrained gradient rms            0.00015659     0.00006667    F
gradient max                        0.00050173
gradient rms                        0.00015659
cart. step max                      0.00110299     0.00100000    F
cart. step rms                      0.00059439     0.00066667    T
 
 
--------
Geometry
--------
Formula: H2Cl5O2Pa
Atoms
  Index Symbol   x (angstrom)   y (angstrom)   z (angstrom)
      1     Pa    -0.08871624     0.57965905     1.24985345       adf.R=2.200
      2     Cl     0.10806812     2.70357294    -0.43958535       adf.R=1.725
      3     Cl    -0.03359759    -0.57056217     3.76427845       adf.R=1.725
      4     Cl     0.10899865     2.70549920     2.93675918       adf.R=1.725
      5     Cl    -0.03249439    -0.57136804    -1.26452791       adf.R=1.725
      6     Cl     2.53191585     0.37613514     1.25023731       adf.R=1.725
      7      O    -1.91558326     0.61839434     1.24976136       adf.R=1.517
      8      O    -0.16344543    -1.98643172     1.24995019       adf.R=1.517
      9      H     0.19271154    -2.41339078     0.46220540       adf.R=1.350
     10      H     0.19498034    -2.41825391     2.03376199       adf.R=1.350
 
Total System Charge            -2.00000
Bonding info available!
 
 *** GO1_GOStep2 ***

 SOLVATION
-------------------------------------------

  The Delley construction of COSMO surface surface is calculated

       Division Level for Surface Triangles (NDIV)                  3
       Final Division Level for Triangles (NFDIV)                   1
       Radius of the Solvent (RSOL)                           1.93000 angstr
  Dielectric Constant (EPSL)                                 78.39000

       COSMO equation is solved iteratively-               conjugate-gradient

       Maximun of Iterations for Charges (NCIX)                  1000
       Criterion for Charge convergence (CCNV)                1.0E-08

  COSMO charges included variationally in SCF

       COSMO included at every SCF cycle

  Geometry-dependent empirical factor                         0.00000

  C-Matrix calculated in cspmtx

  In cspmtx, C-Matrix calculated using fitted potential

-------------------------------------------



 -------------------------------------------
  COSMO surface
  Area             =          620.407
  Volume           =         1148.223
  Number of Points =         1421
 -------------------------------------------



 ======================
 RI Hartree-Fock Scheme
 ======================
  
 Fit Set Quality     : GOOD
 Threshold Quality   : GOOD
 Integration Quality : GOOD
 Fit Generation Method : AUTO
 Response Quality    : DEFAULT
 Is Range Separated  :  F
 
 RIHartreeFock Dependency: number of modified vectors:           7
 cosmo_calcen: 0.5 (esolb+esolc) (Hartrees) =   -0.292996

 Solvation energy (screening term,uncorrected) =   -183.857829 kcal/mol

 Solvation energy (dispersion and cavitation terms) =      1.160112 kcal/mol
 Solvation Energy Contributions (Hartrees)
          esola   esolb+esolc
     0.29299607   -0.58599214
 esol last cycle   -0.29299607
  
 Hartree-Fock exchange energy:   -622.394486226482     
 cosmo_calcen: 0.5 (esolb+esolc) (Hartrees) =   -0.292996

 Solvation energy (screening term,uncorrected) =   -183.857837 kcal/mol

 Solvation energy (dispersion and cavitation terms) =      1.160112 kcal/mol
 Solvation Energy Contributions (Hartrees)
          esola   esolb+esolc
     0.29299608   -0.58599217
 esol last cycle   -0.29299608

 Energy gradients wrt nuclear displacements
 ==========================================

     Atom      Cartesian (a.u./angstrom)
                 X         Y         Z
 ----------------------------------------
     1 Pa    0.000032 -0.000015 -0.000068
     2 Cl    0.000086 -0.000022 -0.000029
     3 Cl   -0.000029 -0.000043 -0.000024
     4 Cl    0.000105  0.000055  0.000010
     5 Cl   -0.000020  0.000055  0.000005
     6 Cl    0.000020 -0.000086  0.000005
     7 O     0.000040  0.000069  0.000005
     8 O    -0.000065 -0.000027  0.000333
     9 H    -0.000125  0.000165 -0.000125
    10 H    -0.000045 -0.000149 -0.000112
 ----------------------------------------
 Mulliken charges used for AMS results%charges...
 
----------------------------------------------------------------------
Geometry Convergence after Step   2       (Hartree/Angstrom,Angstrom)
----------------------------------------------------------------------
current energy                               -2.81422450 Hartree
energy change                      -0.00000089     0.00001000    T
constrained gradient max            0.00033868     0.00010000    F
constrained gradient rms            0.00008307     0.00006667    F
gradient max                        0.00033868
gradient rms                        0.00008307
cart. step max                      0.00284938     0.00100000    F
cart. step rms                      0.00135685     0.00066667    F
 
 
--------
Geometry
--------
Formula: H2Cl5O2Pa
Atoms
  Index Symbol   x (angstrom)   y (angstrom)   z (angstrom)
      1     Pa    -0.08891322     0.57962850     1.24903534       adf.R=2.200
      2     Cl     0.10855094     2.70499570    -0.43848013       adf.R=1.725
      3     Cl    -0.03245361    -0.57120317     3.76311757       adf.R=1.725
      4     Cl     0.10865693     2.70406960     2.93756677       adf.R=1.725
      5     Cl    -0.03298908    -0.57047694    -1.26587587       adf.R=1.725
      6     Cl     2.53171344     0.37614799     1.24857635       adf.R=1.725
      7      O    -1.91581075     0.61835906     1.24901694       adf.R=1.517
      8      O    -0.16349598    -1.98644194     1.24960121       adf.R=1.517
      9      H     0.19537839    -2.41624016     0.46433467       adf.R=1.350
     10      H     0.19220051    -2.41558459     2.03580123       adf.R=1.350
 
Total System Charge            -2.00000
Bonding info available!
 
 *** GO1_GOStep3 ***

 SOLVATION
-------------------------------------------

  The Delley construction of COSMO surface surface is calculated

       Division Level for Surface Triangles (NDIV)                  3
       Final Division Level for Triangles (NFDIV)                   1
       Radius of the Solvent (RSOL)                           1.93000 angstr
  Dielectric Constant (EPSL)                                 78.39000

       COSMO equation is solved iteratively-               conjugate-gradient

       Maximun of Iterations for Charges (NCIX)                  1000
       Criterion for Charge convergence (CCNV)                1.0E-08

  COSMO charges included variationally in SCF

       COSMO included at every SCF cycle

  Geometry-dependent empirical factor                         0.00000

  C-Matrix calculated in cspmtx

  In cspmtx, C-Matrix calculated using fitted potential

-------------------------------------------



 -------------------------------------------
  COSMO surface
  Area             =          620.661
  Volume           =         1148.059
  Number of Points =         1422
 -------------------------------------------



 ======================
 RI Hartree-Fock Scheme
 ======================
  
 Fit Set Quality     : GOOD
 Threshold Quality   : GOOD
 Integration Quality : GOOD
 Fit Generation Method : AUTO
 Response Quality    : DEFAULT
 Is Range Separated  :  F
 
 RIHartreeFock Dependency: number of modified vectors:           7
 cosmo_calcen: 0.5 (esolb+esolc) (Hartrees) =   -0.293002

 Solvation energy (screening term,uncorrected) =   -183.861576 kcal/mol

 Solvation energy (dispersion and cavitation terms) =      1.160588 kcal/mol
 Solvation Energy Contributions (Hartrees)
          esola   esolb+esolc
     0.29300204   -0.58600408
 esol last cycle   -0.29300204
  
 Hartree-Fock exchange energy:   -622.394485844732     
 cosmo_calcen: 0.5 (esolb+esolc) (Hartrees) =   -0.293002

 Solvation energy (screening term,uncorrected) =   -183.861584 kcal/mol

 Solvation energy (dispersion and cavitation terms) =      1.160588 kcal/mol
 Solvation Energy Contributions (Hartrees)
          esola   esolb+esolc
     0.29300205   -0.58600411
 esol last cycle   -0.29300205

 Energy gradients wrt nuclear displacements
 ==========================================

     Atom      Cartesian (a.u./angstrom)
                 X         Y         Z
 ----------------------------------------
     1 Pa    0.000018 -0.000016  0.000054
     2 Cl    0.000109  0.000029 -0.000005
     3 Cl   -0.000003 -0.000005 -0.000095
     4 Cl    0.000100 -0.000012  0.000003
     5 Cl   -0.000018  0.000031 -0.000089
     6 Cl    0.000012 -0.000085 -0.000002
     7 O     0.000009  0.000074 -0.000007
     8 O    -0.000067 -0.000015  0.001235
     9 H     0.000288 -0.000430 -0.000525
    10 H    -0.000449  0.000430 -0.000568
 ----------------------------------------
 Mulliken charges used for AMS results%charges...

 dE(predicted):    -0.85831E-06, dE(actual):     0.13658E-05, Trust radius:    0.020000, all in a.u.
 
----------------------------------------------------------------------
Geometry Convergence after Step   3       (Hartree/Angstrom,Angstrom)
----------------------------------------------------------------------
current energy                               -2.81422314 Hartree
energy change                       0.00000137     0.00001000    T
constrained gradient max            0.00122880     0.00010000    F
constrained gradient rms            0.00030477     0.00006667    F
gradient max                        0.00122880
gradient rms                        0.00030477
cart. step max                      0.00149167     0.00100000    F
cart. step rms                      0.00071161     0.00066667    F
 
 
--------
Geometry
--------
Formula: H2Cl5O2Pa
Atoms
  Index Symbol   x (angstrom)   y (angstrom)   z (angstrom)
      1     Pa    -0.08882749     0.57964408     1.24947034       adf.R=2.200
      2     Cl     0.10832800     2.70431566    -0.43895061       adf.R=1.725
      3     Cl    -0.03301637    -0.57064143     3.76384748       adf.R=1.725
      4     Cl     0.10881356     2.70475374     2.93720624       adf.R=1.725
      5     Cl    -0.03268909    -0.57114831    -1.26507234       adf.R=1.725
      6     Cl     2.53180176     0.37614448     1.24941753       adf.R=1.725
      7      O    -1.91571218     0.61836948     1.24939564       adf.R=1.517
      8      O    -0.16347144    -1.98642853     1.24953856       adf.R=1.517
      9      H     0.19391867    -2.41489730     0.46316325       adf.R=1.350
     10      H     0.19369219    -2.41685781     2.03467799       adf.R=1.350
 
Total System Charge            -2.00000
Bonding info available!
 
 *** GO1_GOStep4 ***

 SOLVATION
-------------------------------------------

  The Delley construction of COSMO surface surface is calculated

       Division Level for Surface Triangles (NDIV)                  3
       Final Division Level for Triangles (NFDIV)                   1
       Radius of the Solvent (RSOL)                           1.93000 angstr
  Dielectric Constant (EPSL)                                 78.39000

       COSMO equation is solved iteratively-               conjugate-gradient

       Maximun of Iterations for Charges (NCIX)                  1000
       Criterion for Charge convergence (CCNV)                1.0E-08

  COSMO charges included variationally in SCF

       COSMO included at every SCF cycle

  Geometry-dependent empirical factor                         0.00000

  C-Matrix calculated in cspmtx

  In cspmtx, C-Matrix calculated using fitted potential

-------------------------------------------



 -------------------------------------------
  COSMO surface
  Area             =          620.665
  Volume           =         1148.401
  Number of Points =         1422
 -------------------------------------------



 ======================
 RI Hartree-Fock Scheme
 ======================
  
 Fit Set Quality     : GOOD
 Threshold Quality   : GOOD
 Integration Quality : GOOD
 Fit Generation Method : AUTO
 Response Quality    : DEFAULT
 Is Range Separated  :  F
 
 RIHartreeFock Dependency: number of modified vectors:           7
 cosmo_calcen: 0.5 (esolb+esolc) (Hartrees) =   -0.292999

 Solvation energy (screening term,uncorrected) =   -183.859969 kcal/mol

 Solvation energy (dispersion and cavitation terms) =      1.160595 kcal/mol
 Solvation Energy Contributions (Hartrees)
          esola   esolb+esolc
     0.29299948   -0.58599896
 esol last cycle   -0.29299948
  
 Hartree-Fock exchange energy:   -622.394484652217     
 cosmo_calcen: 0.5 (esolb+esolc) (Hartrees) =   -0.292999

 Solvation energy (screening term,uncorrected) =   -183.859977 kcal/mol

 Solvation energy (dispersion and cavitation terms) =      1.160595 kcal/mol
 Solvation Energy Contributions (Hartrees)
          esola   esolb+esolc
     0.29299949   -0.58599899
 esol last cycle   -0.29299949

 Energy gradients wrt nuclear displacements
 ==========================================

     Atom      Cartesian (a.u./angstrom)
                 X         Y         Z
 ----------------------------------------
     1 Pa    0.000023 -0.000014 -0.000003
     2 Cl    0.000102 -0.000006 -0.000010
     3 Cl   -0.000016  0.000004 -0.000029
     4 Cl    0.000100  0.000028  0.000008
     5 Cl   -0.000018  0.000014 -0.000015
     6 Cl    0.000015 -0.000086  0.000000
     7 O     0.000023  0.000072 -0.000000
     8 O    -0.000069 -0.000014  0.000358
     9 H    -0.000050  0.000096 -0.000152
    10 H    -0.000111 -0.000096 -0.000156
 ----------------------------------------
 Mulliken charges used for AMS results%charges...
 
----------------------------------------------------------------------
Geometry Convergence after Step   4       (Hartree/Angstrom,Angstrom)
----------------------------------------------------------------------
current energy                               -2.81422351 Hartree
energy change                      -0.00000037     0.00001000    T
constrained gradient max            0.00036347     0.00010000    F
constrained gradient rms            0.00008131     0.00006667    F
gradient max                        0.00036347
gradient rms                        0.00008131
cart. step max                      0.00067539     0.00100000    T
cart. step rms                      0.00024979     0.00066667    T
 
 
--------
Geometry
--------
Formula: H2Cl5O2Pa
Atoms
  Index Symbol   x (angstrom)   y (angstrom)   z (angstrom)
      1     Pa    -0.08884081     0.57964512     1.24930450       adf.R=2.200
      2     Cl     0.10834953     2.70460308    -0.43873929       adf.R=1.725
      3     Cl    -0.03289842    -0.57078612     3.76362593       adf.R=1.725
      4     Cl     0.10878781     2.70446366     2.93737094       adf.R=1.725
      5     Cl    -0.03270048    -0.57098634    -1.26531828       adf.R=1.725
      6     Cl     2.53178899     0.37615615     1.24915118       adf.R=1.725
      7      O    -1.91572894     0.61835592     1.24924040       adf.R=1.517
      8      O    -0.16347655    -1.98641549     1.24940564       adf.R=1.517
      9      H     0.19412842    -2.41557269     0.46357136       adf.R=1.350
     10      H     0.19342801    -2.41620923     2.03508168       adf.R=1.350
 
Total System Charge            -2.00000
Bonding info available!
 
 *** GO1_GOStep5 ***

 SOLVATION
-------------------------------------------

  The Delley construction of COSMO surface surface is calculated

       Division Level for Surface Triangles (NDIV)                  3
       Final Division Level for Triangles (NFDIV)                   1
       Radius of the Solvent (RSOL)                           1.93000 angstr
  Dielectric Constant (EPSL)                                 78.39000

       COSMO equation is solved iteratively-               conjugate-gradient

       Maximun of Iterations for Charges (NCIX)                  1000
       Criterion for Charge convergence (CCNV)                1.0E-08

  COSMO charges included variationally in SCF

       COSMO included at every SCF cycle

  Geometry-dependent empirical factor                         0.00000

  C-Matrix calculated in cspmtx

  In cspmtx, C-Matrix calculated using fitted potential

-------------------------------------------



 -------------------------------------------
  COSMO surface
  Area             =          620.666
  Volume           =         1148.384
  Number of Points =         1422
 -------------------------------------------



 ======================
 RI Hartree-Fock Scheme
 ======================
  
 Fit Set Quality     : GOOD
 Threshold Quality   : GOOD
 Integration Quality : GOOD
 Fit Generation Method : AUTO
 Response Quality    : DEFAULT
 Is Range Separated  :  F
 
 RIHartreeFock Dependency: number of modified vectors:           7
 cosmo_calcen: 0.5 (esolb+esolc) (Hartrees) =   -0.293000

 Solvation energy (screening term,uncorrected) =   -183.860357 kcal/mol

 Solvation energy (dispersion and cavitation terms) =      1.160597 kcal/mol
 Solvation Energy Contributions (Hartrees)
          esola   esolb+esolc
     0.29300010   -0.58600020
 esol last cycle   -0.29300010
  
 Hartree-Fock exchange energy:   -622.394484870931     
 cosmo_calcen: 0.5 (esolb+esolc) (Hartrees) =   -0.293000

 Solvation energy (screening term,uncorrected) =   -183.860365 kcal/mol

 Solvation energy (dispersion and cavitation terms) =      1.160597 kcal/mol
 Solvation Energy Contributions (Hartrees)
          esola   esolb+esolc
     0.29300011   -0.58600022
 esol last cycle   -0.29300011

 Energy gradients wrt nuclear displacements
 ==========================================

     Atom      Cartesian (a.u./angstrom)
                 X         Y         Z
 ----------------------------------------
     1 Pa    0.000022 -0.000011  0.000024
     2 Cl    0.000103  0.000028 -0.000006
     3 Cl   -0.000015  0.000014 -0.000038
     4 Cl    0.000100 -0.000010  0.000006
     5 Cl   -0.000016  0.000005 -0.000027
     6 Cl    0.000014 -0.000086 -0.000001
     7 O     0.000021  0.000072 -0.000002
     8 O    -0.000073 -0.000007  0.000194
     9 H     0.000064  0.000047 -0.000071
    10 H    -0.000220 -0.000052 -0.000080
 ----------------------------------------
 Mulliken charges used for AMS results%charges...
 
----------------------------------------------------------------------
Geometry Convergence after Step   5       (Hartree/Angstrom,Angstrom)
----------------------------------------------------------------------
current energy                               -2.81422352 Hartree
energy change                      -0.00000001     0.00001000    T
constrained gradient max            0.00020132     0.00010000    F
constrained gradient rms            0.00005706     0.00006667    T
gradient max                        0.00020132
gradient rms                        0.00005706
cart. step max                      0.00176507     0.00100000    F
cart. step rms                      0.00058345     0.00066667    T
 
 
--------
Geometry
--------
Formula: H2Cl5O2Pa
Atoms
  Index Symbol   x (angstrom)   y (angstrom)   z (angstrom)
      1     Pa    -0.08883385     0.57965588     1.24903012       adf.R=2.200
      2     Cl     0.10835219     2.70507498    -0.43837561       adf.R=1.725
      3     Cl    -0.03297759    -0.57104498     3.76329074       adf.R=1.725
      4     Cl     0.10872904     2.70397709     2.93766463       adf.R=1.725
      5     Cl    -0.03240611    -0.57073140    -1.26568823       adf.R=1.725
      6     Cl     2.53180012     0.37620075     1.24902339       adf.R=1.725
      7      O    -1.91572602     0.61831726     1.24891924       adf.R=1.517
      8      O    -0.16348279    -1.98636930     1.24921317       adf.R=1.517
      9      H     0.19297773    -2.41733776     0.46405043       adf.R=1.350
     10      H     0.19440488    -2.41448848     2.03556620       adf.R=1.350
 
Total System Charge            -2.00000
Bonding info available!
 
 *** GO1_GOStep6 ***

 SOLVATION
-------------------------------------------

  The Delley construction of COSMO surface surface is calculated

       Division Level for Surface Triangles (NDIV)                  3
       Final Division Level for Triangles (NFDIV)                   1
       Radius of the Solvent (RSOL)                           1.93000 angstr
  Dielectric Constant (EPSL)                                 78.39000

       COSMO equation is solved iteratively-               conjugate-gradient

       Maximun of Iterations for Charges (NCIX)                  1000
       Criterion for Charge convergence (CCNV)                1.0E-08

  COSMO charges included variationally in SCF

       COSMO included at every SCF cycle

  Geometry-dependent empirical factor                         0.00000

  C-Matrix calculated in cspmtx

  In cspmtx, C-Matrix calculated using fitted potential

-------------------------------------------



 -------------------------------------------
  COSMO surface
  Area             =          620.418
  Volume           =         1147.928
  Number of Points =         1421
 -------------------------------------------



 ======================
 RI Hartree-Fock Scheme
 ======================
  
 Fit Set Quality     : GOOD
 Threshold Quality   : GOOD
 Integration Quality : GOOD
 Fit Generation Method : AUTO
 Response Quality    : DEFAULT
 Is Range Separated  :  F
 
 RIHartreeFock Dependency: number of modified vectors:           7
 cosmo_calcen: 0.5 (esolb+esolc) (Hartrees) =   -0.293001

 Solvation energy (screening term,uncorrected) =   -183.860896 kcal/mol

 Solvation energy (dispersion and cavitation terms) =      1.160135 kcal/mol
 Solvation Energy Contributions (Hartrees)
          esola   esolb+esolc
     0.29300096   -0.58600192
 esol last cycle   -0.29300096
  
 Hartree-Fock exchange energy:   -622.394488539812     
 cosmo_calcen: 0.5 (esolb+esolc) (Hartrees) =   -0.293001

 Solvation energy (screening term,uncorrected) =   -183.860904 kcal/mol

 Solvation energy (dispersion and cavitation terms) =      1.160135 kcal/mol
 Solvation Energy Contributions (Hartrees)
          esola   esolb+esolc
     0.29300097   -0.58600194
 esol last cycle   -0.29300097

 Energy gradients wrt nuclear displacements
 ==========================================

     Atom      Cartesian (a.u./angstrom)
                 X         Y         Z
 ----------------------------------------
     1 Pa    0.000022 -0.000000  0.000083
     2 Cl    0.000104  0.000036  0.000004
     3 Cl   -0.000025  0.000035 -0.000040
     4 Cl    0.000099 -0.000027  0.000002
     5 Cl   -0.000003 -0.000018 -0.000033
     6 Cl    0.000013 -0.000086 -0.000002
     7 O     0.000019  0.000071  0.000001
     8 O    -0.000076  0.000006 -0.000345
     9 H    -0.000224 -0.000104  0.000161
    10 H     0.000072  0.000088  0.000169
 ----------------------------------------
 Mulliken charges used for AMS results%charges...
 
----------------------------------------------------------------------
Geometry Convergence after Step   6       (Hartree/Angstrom,Angstrom)
----------------------------------------------------------------------
current energy                               -2.81422434 Hartree
energy change                      -0.00000082     0.00001000    T
constrained gradient max            0.00035248     0.00010000    F
constrained gradient rms            0.00009106     0.00006667    F
gradient max                        0.00035248
gradient rms                        0.00009106
cart. step max                      0.00116435     0.00100000    F
cart. step rms                      0.00039148     0.00066667    T
 
 
--------
Geometry
--------
Formula: H2Cl5O2Pa
Atoms
  Index Symbol   x (angstrom)   y (angstrom)   z (angstrom)
      1     Pa    -0.08881496     0.57965459     1.24926259       adf.R=2.200
      2     Cl     0.10833895     2.70466810    -0.43867433       adf.R=1.725
      3     Cl    -0.03293299    -0.57085446     3.76359770       adf.R=1.725
      4     Cl     0.10874477     2.70438035     2.93743550       adf.R=1.725
      5     Cl    -0.03258630    -0.57094384    -1.26535142       adf.R=1.725
      6     Cl     2.53181895     0.37618899     1.24923144       adf.R=1.725
      7      O    -1.91570250     0.61833558     1.24917843       adf.R=1.517
      8      O    -0.16347841    -1.98638476     1.24928402       adf.R=1.517
      9      H     0.19356269    -2.41617341     0.46360471       adf.R=1.350
     10      H     0.19388739    -2.41561709     2.03512544       adf.R=1.350
 
Total System Charge            -2.00000
Bonding info available!
 
 *** GO1_GOStep7 ***

 SOLVATION
-------------------------------------------

  The Delley construction of COSMO surface surface is calculated

       Division Level for Surface Triangles (NDIV)                  3
       Final Division Level for Triangles (NFDIV)                   1
       Radius of the Solvent (RSOL)                           1.93000 angstr
  Dielectric Constant (EPSL)                                 78.39000

       COSMO equation is solved iteratively-               conjugate-gradient

       Maximun of Iterations for Charges (NCIX)                  1000
       Criterion for Charge convergence (CCNV)                1.0E-08

  COSMO charges included variationally in SCF

       COSMO included at every SCF cycle

  Geometry-dependent empirical factor                         0.00000

  C-Matrix calculated in cspmtx

  In cspmtx, C-Matrix calculated using fitted potential

-------------------------------------------



 -------------------------------------------
  COSMO surface
  Area             =          620.667
  Volume           =         1148.429
  Number of Points =         1422
 -------------------------------------------



 ======================
 RI Hartree-Fock Scheme
 ======================
  
 Fit Set Quality     : GOOD
 Threshold Quality   : GOOD
 Integration Quality : GOOD
 Fit Generation Method : AUTO
 Response Quality    : DEFAULT
 Is Range Separated  :  F
 
 RIHartreeFock Dependency: number of modified vectors:           7
 cosmo_calcen: 0.5 (esolb+esolc) (Hartrees) =   -0.293000

 Solvation energy (screening term,uncorrected) =   -183.860233 kcal/mol

 Solvation energy (dispersion and cavitation terms) =      1.160600 kcal/mol
 Solvation Energy Contributions (Hartrees)
          esola   esolb+esolc
     0.29299990   -0.58599980
 esol last cycle   -0.29299990
  
 Hartree-Fock exchange energy:   -622.394489630708     
 cosmo_calcen: 0.5 (esolb+esolc) (Hartrees) =   -0.293000

 Solvation energy (screening term,uncorrected) =   -183.860241 kcal/mol

 Solvation energy (dispersion and cavitation terms) =      1.160600 kcal/mol
 Solvation Energy Contributions (Hartrees)
          esola   esolb+esolc
     0.29299991   -0.58599983
 esol last cycle   -0.29299991

 Energy gradients wrt nuclear displacements
 ==========================================

     Atom      Cartesian (a.u./angstrom)
                 X         Y         Z
 ----------------------------------------
     1 Pa    0.000022 -0.000005  0.000042
     2 Cl    0.000102  0.000027 -0.000003
     3 Cl   -0.000019  0.000022 -0.000027
     4 Cl    0.000099 -0.000013  0.000005
     5 Cl   -0.000012 -0.000005 -0.000016
     6 Cl    0.000014 -0.000086 -0.000000
     7 O     0.000024  0.000071 -0.000001
     8 O    -0.000071 -0.000004 -0.000006
     9 H    -0.000132 -0.000148  0.000002
    10 H    -0.000026  0.000141  0.000005
 ----------------------------------------
 Mulliken charges used for AMS results%charges...
 
----------------------------------------------------------------------
Geometry Convergence after Step   7       (Hartree/Angstrom,Angstrom)
----------------------------------------------------------------------
current energy                               -2.81422356 Hartree
energy change                       0.00000077     0.00001000    T
constrained gradient max            0.00014208     0.00010000    F
constrained gradient rms            0.00004137     0.00006667    T
gradient max                        0.00014208
gradient rms                        0.00004137
cart. step max                      0.00359915     0.00100000    F
cart. step rms                      0.00116770     0.00066667    F
 
 
--------
Geometry
--------
Formula: H2Cl5O2Pa
Atoms
  Index Symbol   x (angstrom)   y (angstrom)   z (angstrom)
      1     Pa    -0.08877355     0.57965041     1.24994080       adf.R=2.200
      2     Cl     0.10822532     2.70349805    -0.43951497       adf.R=1.725
      3     Cl    -0.03288441    -0.57031240     3.76447543       adf.R=1.725
      4     Cl     0.10887669     2.70555949     2.93672662       adf.R=1.725
      5     Cl    -0.03297261    -0.57154882    -1.26440087       adf.R=1.725
      6     Cl     2.53185966     0.37615646     1.24973594       adf.R=1.725
      7      O    -1.91565257     0.61837665     1.24994044       adf.R=1.517
      8      O    -0.16346560    -1.98642187     1.24944772       adf.R=1.517
      9      H     0.19522046    -2.41257426     0.46241571       adf.R=1.350
     10      H     0.19240420    -2.41912966     2.03392723       adf.R=1.350
 
Total System Charge            -2.00000
Bonding info available!
 
 *** GO1_GOStep8 ***

 SOLVATION
-------------------------------------------

  The Delley construction of COSMO surface surface is calculated

       Division Level for Surface Triangles (NDIV)                  3
       Final Division Level for Triangles (NFDIV)                   1
       Radius of the Solvent (RSOL)                           1.93000 angstr
  Dielectric Constant (EPSL)                                 78.39000

       COSMO equation is solved iteratively-               conjugate-gradient

       Maximun of Iterations for Charges (NCIX)                  1000
       Criterion for Charge convergence (CCNV)                1.0E-08

  COSMO charges included variationally in SCF

       COSMO included at every SCF cycle

  Geometry-dependent empirical factor                         0.00000

  C-Matrix calculated in cspmtx

  In cspmtx, C-Matrix calculated using fitted potential

-------------------------------------------



 -------------------------------------------
  COSMO surface
  Area             =          620.411
  Volume           =         1147.904
  Number of Points =         1421
 -------------------------------------------



 ======================
 RI Hartree-Fock Scheme
 ======================
  
 Fit Set Quality     : GOOD
 Threshold Quality   : GOOD
 Integration Quality : GOOD
 Fit Generation Method : AUTO
 Response Quality    : DEFAULT
 Is Range Separated  :  F
 
 RIHartreeFock Dependency: number of modified vectors:           7
 cosmo_calcen: 0.5 (esolb+esolc) (Hartrees) =   -0.292998

 Solvation energy (screening term,uncorrected) =   -183.859211 kcal/mol

 Solvation energy (dispersion and cavitation terms) =      1.160121 kcal/mol
 Solvation Energy Contributions (Hartrees)
          esola   esolb+esolc
     0.29299827   -0.58599654
 esol last cycle   -0.29299827
  
 Hartree-Fock exchange energy:   -622.394488017521     
 cosmo_calcen: 0.5 (esolb+esolc) (Hartrees) =   -0.292998

 Solvation energy (screening term,uncorrected) =   -183.859219 kcal/mol

 Solvation energy (dispersion and cavitation terms) =      1.160121 kcal/mol
 Solvation Energy Contributions (Hartrees)
          esola   esolb+esolc
     0.29299828   -0.58599657
 esol last cycle   -0.29299828

 Energy gradients wrt nuclear displacements
 ==========================================

     Atom      Cartesian (a.u./angstrom)
                 X         Y         Z
 ----------------------------------------
     1 Pa    0.000031 -0.000014 -0.000072
     2 Cl    0.000093 -0.000022 -0.000020
     3 Cl   -0.000005 -0.000017  0.000008
     4 Cl    0.000104  0.000047  0.000007
     5 Cl   -0.000038  0.000032  0.000025
     6 Cl    0.000018 -0.000085  0.000000
     7 O     0.000027  0.000071 -0.000005
     8 O    -0.000067 -0.000023  0.000309
     9 H     0.000068  0.000184 -0.000116
    10 H    -0.000232 -0.000172 -0.000136
 ----------------------------------------
 Mulliken charges used for AMS results%charges...
 
----------------------------------------------------------------------
Geometry Convergence after Step   8       (Hartree/Angstrom,Angstrom)
----------------------------------------------------------------------
current energy                               -2.81422394 Hartree
energy change                      -0.00000037     0.00001000    T
constrained gradient max            0.00031612     0.00010000    F
constrained gradient rms            0.00009085     0.00006667    F
gradient max                        0.00031612
gradient rms                        0.00009085
cart. step max                      0.00226366     0.00100000    F
cart. step rms                      0.00072893     0.00066667    F
 
 
--------
Geometry
--------
Formula: H2Cl5O2Pa
Atoms
  Index Symbol   x (angstrom)   y (angstrom)   z (angstrom)
      1     Pa    -0.08879530     0.57965571     1.24952848       adf.R=2.200
      2     Cl     0.10828026     2.70421753    -0.43898570       adf.R=1.725
      3     Cl    -0.03290398    -0.57062629     3.76395783       adf.R=1.725
      4     Cl     0.10879173     2.70482860     2.93716631       adf.R=1.725
      5     Cl    -0.03268340    -0.57120004    -1.26496939       adf.R=1.725
      6     Cl     2.53184000     0.37619212     1.24941889       adf.R=1.725
      7      O    -1.91567998     0.61834224     1.24948499       adf.R=1.517
      8      O    -0.16347780    -1.98638753     1.24930108       adf.R=1.517
      9      H     0.19414580    -2.41483792     0.46313258       adf.R=1.350
     10      H     0.19332024    -2.41693037     2.03465899       adf.R=1.350
 
Total System Charge            -2.00000
Bonding info available!
 
 *** GO1_GOStep9 ***

 SOLVATION
-------------------------------------------

  The Delley construction of COSMO surface surface is calculated

       Division Level for Surface Triangles (NDIV)                  3
       Final Division Level for Triangles (NFDIV)                   1
       Radius of the Solvent (RSOL)                           1.93000 angstr
  Dielectric Constant (EPSL)                                 78.39000

       COSMO equation is solved iteratively-               conjugate-gradient

       Maximun of Iterations for Charges (NCIX)                  1000
       Criterion for Charge convergence (CCNV)                1.0E-08

  COSMO charges included variationally in SCF

       COSMO included at every SCF cycle

  Geometry-dependent empirical factor                         0.00000

  C-Matrix calculated in cspmtx

  In cspmtx, C-Matrix calculated using fitted potential

-------------------------------------------



 -------------------------------------------
  COSMO surface
  Area             =          620.665
  Volume           =         1148.374
  Number of Points =         1422
 -------------------------------------------



 ======================
 RI Hartree-Fock Scheme
 ======================
  
 Fit Set Quality     : GOOD
 Threshold Quality   : GOOD
 Integration Quality : GOOD
 Fit Generation Method : AUTO
 Response Quality    : DEFAULT
 Is Range Separated  :  F
 
 RIHartreeFock Dependency: number of modified vectors:           7
 cosmo_calcen: 0.5 (esolb+esolc) (Hartrees) =   -0.292999

 Solvation energy (screening term,uncorrected) =   -183.859759 kcal/mol

 Solvation energy (dispersion and cavitation terms) =      1.160595 kcal/mol
 Solvation Energy Contributions (Hartrees)
          esola   esolb+esolc
     0.29299914   -0.58599829
 esol last cycle   -0.29299914
  
 Hartree-Fock exchange energy:   -622.394489114224     
 cosmo_calcen: 0.5 (esolb+esolc) (Hartrees) =   -0.292999

 Solvation energy (screening term,uncorrected) =   -183.859767 kcal/mol

 Solvation energy (dispersion and cavitation terms) =      1.160595 kcal/mol
 Solvation Energy Contributions (Hartrees)
          esola   esolb+esolc
     0.29299916   -0.58599831
 esol last cycle   -0.29299916

 Energy gradients wrt nuclear displacements
 ==========================================

     Atom      Cartesian (a.u./angstrom)
                 X         Y         Z
 ----------------------------------------
     1 Pa    0.000024 -0.000006 -0.000000
     2 Cl    0.000101 -0.000013 -0.000008
     3 Cl   -0.000014  0.000011 -0.000009
     4 Cl    0.000099  0.000029  0.000005
     5 Cl   -0.000021  0.000005  0.000005
     6 Cl    0.000015 -0.000086 -0.000001
     7 O     0.000026  0.000071 -0.000002
     8 O    -0.000071 -0.000007  0.000042
     9 H    -0.000019  0.000157 -0.000014
    10 H    -0.000140 -0.000161 -0.000018
 ----------------------------------------
 Mulliken charges used for AMS results%charges...
 
----------------------------------------------------------------------
Geometry Convergence after Step   9       (Hartree/Angstrom,Angstrom)
----------------------------------------------------------------------
current energy                               -2.81422358 Hartree
energy change                       0.00000036     0.00001000    T
constrained gradient max            0.00015870     0.00010000    F
constrained gradient rms            0.00004516     0.00006667    T
gradient max                        0.00015870
gradient rms                        0.00004516
cart. step max                      0.00459377     0.00100000    F
cart. step rms                      0.00149687     0.00066667    F
 
 
--------
Geometry
--------
Formula: H2Cl5O2Pa
Atoms
  Index Symbol   x (angstrom)   y (angstrom)   z (angstrom)
      1     Pa    -0.08879642     0.57966864     1.24863011       adf.R=2.200
      2     Cl     0.10835701     2.70566590    -0.43800254       adf.R=1.725
      3     Cl    -0.03294876    -0.57153964     3.76276105       adf.R=1.725
      4     Cl     0.10864054     2.70332715     2.93803195       adf.R=1.725
      5     Cl    -0.03227014    -0.57025289    -1.26625925       adf.R=1.725
      6     Cl     2.53184668     0.37626847     1.24884084       adf.R=1.725
      7      O    -1.91569115     0.61827825     1.24848776       adf.R=1.517
      8      O    -0.16347985    -1.98631075     1.24918141       adf.R=1.517
      9      H     0.19209962    -2.41943169     0.46475756       adf.R=1.350
     10      H     0.19508007    -2.41241940     2.03626519       adf.R=1.350
 
Total System Charge            -2.00000
Bonding info available!
 
 *** GO1_GOStep10 ***

 SOLVATION
-------------------------------------------

  The Delley construction of COSMO surface surface is calculated

       Division Level for Surface Triangles (NDIV)                  3
       Final Division Level for Triangles (NFDIV)                   1
       Radius of the Solvent (RSOL)                           1.93000 angstr
  Dielectric Constant (EPSL)                                 78.39000

       COSMO equation is solved iteratively-               conjugate-gradient

       Maximun of Iterations for Charges (NCIX)                  1000
       Criterion for Charge convergence (CCNV)                1.0E-08

  COSMO charges included variationally in SCF

       COSMO included at every SCF cycle

  Geometry-dependent empirical factor                         0.00000

  C-Matrix calculated in cspmtx

  In cspmtx, C-Matrix calculated using fitted potential

-------------------------------------------



 -------------------------------------------
  COSMO surface
  Area             =          620.414
  Volume           =         1147.923
  Number of Points =         1421
 -------------------------------------------



 ======================
 RI Hartree-Fock Scheme
 ======================
  
 Fit Set Quality     : GOOD
 Threshold Quality   : GOOD
 Integration Quality : GOOD
 Fit Generation Method : AUTO
 Response Quality    : DEFAULT
 Is Range Separated  :  F
 
 RIHartreeFock Dependency: number of modified vectors:           7
 cosmo_calcen: 0.5 (esolb+esolc) (Hartrees) =   -0.293001

 Solvation energy (screening term,uncorrected) =   -183.861116 kcal/mol

 Solvation energy (dispersion and cavitation terms) =      1.160126 kcal/mol
 Solvation Energy Contributions (Hartrees)
          esola   esolb+esolc
     0.29300131   -0.58600261
 esol last cycle   -0.29300131
  
 Hartree-Fock exchange energy:   -622.394500159482     
 cosmo_calcen: 0.5 (esolb+esolc) (Hartrees) =   -0.293001

 Solvation energy (screening term,uncorrected) =   -183.861124 kcal/mol

 Solvation energy (dispersion and cavitation terms) =      1.160126 kcal/mol
 Solvation Energy Contributions (Hartrees)
          esola   esolb+esolc
     0.29300132   -0.58600264
 esol last cycle   -0.29300132

 Energy gradients wrt nuclear displacements
 ==========================================

     Atom      Cartesian (a.u./angstrom)
                 X         Y         Z
 ----------------------------------------
     1 Pa    0.000024  0.000010  0.000139
     2 Cl    0.000102  0.000040  0.000009
     3 Cl   -0.000034  0.000039 -0.000063
     4 Cl    0.000099 -0.000044 -0.000001
     5 Cl    0.000005 -0.000023 -0.000061
     6 Cl    0.000012 -0.000087  0.000003
     7 O     0.000020  0.000070  0.000000
     8 O    -0.000069  0.000005 -0.000195
     9 H    -0.000223 -0.000215  0.000086
    10 H     0.000064  0.000203  0.000082
 ----------------------------------------
 Mulliken charges used for AMS results%charges...
 
----------------------------------------------------------------------
Geometry Convergence after Step  10       (Hartree/Angstrom,Angstrom)
----------------------------------------------------------------------
current energy                               -2.81422376 Hartree
energy change                      -0.00000018     0.00001000    T
constrained gradient max            0.00020872     0.00010000    F
constrained gradient rms            0.00008432     0.00006667    F
gradient max                        0.00020872
gradient rms                        0.00008432
cart. step max                      0.00279839     0.00100000    F
cart. step rms                      0.00091669     0.00066667    F
 
 
--------
Geometry
--------
Formula: H2Cl5O2Pa
Atoms
  Index Symbol   x (angstrom)   y (angstrom)   z (angstrom)
      1     Pa    -0.08878504     0.57966344     1.24917677       adf.R=2.200
      2     Cl     0.10832454     2.70476442    -0.43862155       adf.R=1.725
      3     Cl    -0.03288264    -0.57101209     3.76349675       adf.R=1.725
      4     Cl     0.10870235     2.70425247     2.93749710       adf.R=1.725
      5     Cl    -0.03255036    -0.57081599    -1.26546526       adf.R=1.725
      6     Cl     2.53185557     0.37623651     1.24921114       adf.R=1.725
      7      O    -1.91567308     0.61831465     1.24909841       adf.R=1.517
      8      O    -0.16347812    -1.98634827     1.24924965       adf.R=1.517
      9      H     0.19336767    -2.41663329     0.46375961       adf.R=1.350
     10      H     0.19395670    -2.41516779     2.03529144       adf.R=1.350
 
Total System Charge            -2.00000
Bonding info available!
 
 *** GO1_GOStep11 ***

 SOLVATION
-------------------------------------------

  The Delley construction of COSMO surface surface is calculated

       Division Level for Surface Triangles (NDIV)                  3
       Final Division Level for Triangles (NFDIV)                   1
       Radius of the Solvent (RSOL)                           1.93000 angstr
  Dielectric Constant (EPSL)                                 78.39000

       COSMO equation is solved iteratively-               conjugate-gradient

       Maximun of Iterations for Charges (NCIX)                  1000
       Criterion for Charge convergence (CCNV)                1.0E-08

  COSMO charges included variationally in SCF

       COSMO included at every SCF cycle

  Geometry-dependent empirical factor                         0.00000

  C-Matrix calculated in cspmtx

  In cspmtx, C-Matrix calculated using fitted potential

-------------------------------------------



 -------------------------------------------
  COSMO surface
  Area             =          620.420
  Volume           =         1147.927
  Number of Points =         1421
 -------------------------------------------



 ======================
 RI Hartree-Fock Scheme
 ======================
  
 Fit Set Quality     : GOOD
 Threshold Quality   : GOOD
 Integration Quality : GOOD
 Fit Generation Method : AUTO
 Response Quality    : DEFAULT
 Is Range Separated  :  F
 
 RIHartreeFock Dependency: number of modified vectors:           7
 cosmo_calcen: 0.5 (esolb+esolc) (Hartrees) =   -0.293000

 Solvation energy (screening term,uncorrected) =   -183.860345 kcal/mol

 Solvation energy (dispersion and cavitation terms) =      1.160138 kcal/mol
 Solvation Energy Contributions (Hartrees)
          esola   esolb+esolc
     0.29300008   -0.58600016
 esol last cycle   -0.29300008
  
 Hartree-Fock exchange energy:   -622.394493745298     
 cosmo_calcen: 0.5 (esolb+esolc) (Hartrees) =   -0.293000

 Solvation energy (screening term,uncorrected) =   -183.860353 kcal/mol

 Solvation energy (dispersion and cavitation terms) =      1.160138 kcal/mol
 Solvation Energy Contributions (Hartrees)
          esola   esolb+esolc
     0.29300009   -0.58600019
 esol last cycle   -0.29300009

 Energy gradients wrt nuclear displacements
 ==========================================

     Atom      Cartesian (a.u./angstrom)
                 X         Y         Z
 ----------------------------------------
     1 Pa    0.000025  0.000002  0.000053
     2 Cl    0.000101  0.000024 -0.000002
     3 Cl   -0.000021  0.000019 -0.000029
     4 Cl    0.000098 -0.000017  0.000002
     5 Cl   -0.000012 -0.000005 -0.000019
     6 Cl    0.000015 -0.000086  0.000001
     7 O     0.000024  0.000071 -0.000002
     8 O    -0.000069 -0.000001 -0.000017
     9 H    -0.000142 -0.000161  0.000004
    10 H    -0.000018  0.000154  0.000009
 ----------------------------------------
 Mulliken charges used for AMS results%charges...
 
----------------------------------------------------------------------
Geometry Convergence after Step  11       (Hartree/Angstrom,Angstrom)
----------------------------------------------------------------------
current energy                               -2.81422454 Hartree
energy change                      -0.00000078     0.00001000    T
constrained gradient max            0.00015495     0.00010000    F
constrained gradient rms            0.00004556     0.00006667    T
gradient max                        0.00015495
gradient rms                        0.00004556
cart. step max                      0.00447892     0.00100000    F
cart. step rms                      0.00145782     0.00066667    F
 
 
--------
Geometry
--------
Formula: H2Cl5O2Pa
Atoms
  Index Symbol   x (angstrom)   y (angstrom)   z (angstrom)
      1     Pa    -0.08877837     0.57965093     1.25004726       adf.R=2.200
      2     Cl     0.10813084     2.70335595    -0.43957067       adf.R=1.725
      3     Cl    -0.03287731    -0.57010876     3.76468138       adf.R=1.725
      4     Cl     0.10893678     2.70568982     2.93664119       adf.R=1.725
      5     Cl    -0.03279770    -0.57174404    -1.26421712       adf.R=1.725
      6     Cl     2.53185839     0.37619074     1.24974507       adf.R=1.725
      7      O    -1.91565814     0.61835643     1.25010052       adf.R=1.517
      8      O    -0.16348576    -1.98640427     1.24934038       adf.R=1.517
      9      H     0.19530448    -2.41215438     0.46220803       adf.R=1.350
     10      H     0.19220437    -2.41957838     2.03371804       adf.R=1.350
 
Total System Charge            -2.00000
Bonding info available!
 
 *** GO1_GOStep12 ***

 SOLVATION
-------------------------------------------

  The Delley construction of COSMO surface surface is calculated

       Division Level for Surface Triangles (NDIV)                  3
       Final Division Level for Triangles (NFDIV)                   1
       Radius of the Solvent (RSOL)                           1.93000 angstr
  Dielectric Constant (EPSL)                                 78.39000

       COSMO equation is solved iteratively-               conjugate-gradient

       Maximun of Iterations for Charges (NCIX)                  1000
       Criterion for Charge convergence (CCNV)                1.0E-08

  COSMO charges included variationally in SCF

       COSMO included at every SCF cycle

  Geometry-dependent empirical factor                         0.00000

  C-Matrix calculated in cspmtx

  In cspmtx, C-Matrix calculated using fitted potential

-------------------------------------------



 -------------------------------------------
  COSMO surface
  Area             =          620.411
  Volume           =         1147.901
  Number of Points =         1421
 -------------------------------------------



 ======================
 RI Hartree-Fock Scheme
 ======================
  
 Fit Set Quality     : GOOD
 Threshold Quality   : GOOD
 Integration Quality : GOOD
 Fit Generation Method : AUTO
 Response Quality    : DEFAULT
 Is Range Separated  :  F
 
 RIHartreeFock Dependency: number of modified vectors:           7
 cosmo_calcen: 0.5 (esolb+esolc) (Hartrees) =   -0.292999

 Solvation energy (screening term,uncorrected) =   -183.859454 kcal/mol

 Solvation energy (dispersion and cavitation terms) =      1.160120 kcal/mol
 Solvation Energy Contributions (Hartrees)
          esola   esolb+esolc
     0.29299866   -0.58599732
 esol last cycle   -0.29299866
  
 Hartree-Fock exchange energy:   -622.394490355894     
 cosmo_calcen: 0.5 (esolb+esolc) (Hartrees) =   -0.292999

 Solvation energy (screening term,uncorrected) =   -183.859462 kcal/mol

 Solvation energy (dispersion and cavitation terms) =      1.160120 kcal/mol
 Solvation Energy Contributions (Hartrees)
          esola   esolb+esolc
     0.29299867   -0.58599734
 esol last cycle   -0.29299867

 Energy gradients wrt nuclear displacements
 ==========================================

     Atom      Cartesian (a.u./angstrom)
                 X         Y         Z
 ----------------------------------------
     1 Pa    0.000026 -0.000011 -0.000085
     2 Cl    0.000094 -0.000023 -0.000016
     3 Cl   -0.000004 -0.000007  0.000029
     4 Cl    0.000104  0.000044  0.000005
     5 Cl   -0.000035  0.000022  0.000044
     6 Cl    0.000017 -0.000086 -0.000004
     7 O     0.000029  0.000071 -0.000001
     8 O    -0.000068 -0.000017  0.000095
     9 H     0.000031  0.000242 -0.000025
    10 H    -0.000194 -0.000236 -0.000041
 ----------------------------------------
 Mulliken charges used for AMS results%charges...
 
----------------------------------------------------------------------
Geometry Convergence after Step  12       (Hartree/Angstrom,Angstrom)
----------------------------------------------------------------------
current energy                               -2.81422382 Hartree
energy change                       0.00000071     0.00001000    T
constrained gradient max            0.00024304     0.00010000    F
constrained gradient rms            0.00007412     0.00006667    F
gradient max                        0.00024304
gradient rms                        0.00007412
cart. step max                      0.00277009     0.00100000    F
cart. step rms                      0.00089897     0.00066667    F
 
 
--------
Geometry
--------
Formula: H2Cl5O2Pa
Atoms
  Index Symbol   x (angstrom)   y (angstrom)   z (angstrom)
      1     Pa    -0.08877997     0.57966007     1.24951395       adf.R=2.200
      2     Cl     0.10823694     2.70421825    -0.43898423       adf.R=1.725
      3     Cl    -0.03286898    -0.57066565     3.76395912       adf.R=1.725
      4     Cl     0.10879135     2.70480605     2.93716393       adf.R=1.725
      5     Cl    -0.03260711    -0.57117577    -1.26498347       adf.R=1.725
      6     Cl     2.53186076     0.37623235     1.24941028       adf.R=1.725
      7      O    -1.91566525     0.61832444     1.24949531       adf.R=1.517
      8      O    -0.16348570    -1.98636145     1.24927482       adf.R=1.517
      9      H     0.19408679    -2.41492446     0.46315588       adf.R=1.350
     10      H     0.19326875    -2.41685976     2.03468848       adf.R=1.350
 
Total System Charge            -2.00000
Bonding info available!
 
 *** GO1_GOStep13 ***

 SOLVATION
-------------------------------------------

  The Delley construction of COSMO surface surface is calculated

       Division Level for Surface Triangles (NDIV)                  3
       Final Division Level for Triangles (NFDIV)                   1
       Radius of the Solvent (RSOL)                           1.93000 angstr
  Dielectric Constant (EPSL)                                 78.39000

       COSMO equation is solved iteratively-               conjugate-gradient

       Maximun of Iterations for Charges (NCIX)                  1000
       Criterion for Charge convergence (CCNV)                1.0E-08

  COSMO charges included variationally in SCF

       COSMO included at every SCF cycle

  Geometry-dependent empirical factor                         0.00000

  C-Matrix calculated in cspmtx

  In cspmtx, C-Matrix calculated using fitted potential

-------------------------------------------



 -------------------------------------------
  COSMO surface
  Area             =          620.419
  Volume           =         1147.924
  Number of Points =         1421
 -------------------------------------------



 ======================
 RI Hartree-Fock Scheme
 ======================
  
 Fit Set Quality     : GOOD
 Threshold Quality   : GOOD
 Integration Quality : GOOD
 Fit Generation Method : AUTO
 Response Quality    : DEFAULT
 Is Range Separated  :  F
 
 RIHartreeFock Dependency: number of modified vectors:           7
 cosmo_calcen: 0.5 (esolb+esolc) (Hartrees) =   -0.293000

 Solvation energy (screening term,uncorrected) =   -183.860030 kcal/mol

 Solvation energy (dispersion and cavitation terms) =      1.160135 kcal/mol
 Solvation Energy Contributions (Hartrees)
          esola   esolb+esolc
     0.29299958   -0.58599915
 esol last cycle   -0.29299958
  
 Hartree-Fock exchange energy:   -622.394492250337     
 cosmo_calcen: 0.5 (esolb+esolc) (Hartrees) =   -0.293000

 Solvation energy (screening term,uncorrected) =   -183.860038 kcal/mol

 Solvation energy (dispersion and cavitation terms) =      1.160135 kcal/mol
 Solvation Energy Contributions (Hartrees)
          esola   esolb+esolc
     0.29299959   -0.58599918
 esol last cycle   -0.29299959

 Energy gradients wrt nuclear displacements
 ==========================================

     Atom      Cartesian (a.u./angstrom)
                 X         Y         Z
 ----------------------------------------
     1 Pa    0.000025 -0.000002 -0.000002
     2 Cl    0.000100 -0.000016 -0.000007
     3 Cl   -0.000015  0.000009 -0.000005
     4 Cl    0.000098  0.000027  0.000003
     5 Cl   -0.000019  0.000005  0.000006
     6 Cl    0.000015 -0.000086 -0.000001
     7 O     0.000026  0.000071  0.000000
     8 O    -0.000070 -0.000004  0.000011
     9 H    -0.000026  0.000161 -0.000001
    10 H    -0.000133 -0.000165 -0.000004
 ----------------------------------------
 Mulliken charges used for AMS results%charges...
 
----------------------------------------------------------------------
Geometry Convergence after Step  13       (Hartree/Angstrom,Angstrom)
----------------------------------------------------------------------
current energy                               -2.81422455 Hartree
energy change                      -0.00000072     0.00001000    T
constrained gradient max            0.00016249     0.00010000    F
constrained gradient rms            0.00004470     0.00006667    T
gradient max                        0.00016249
gradient rms                        0.00004470
cart. step max                      0.00471188     0.00100000    F
cart. step rms                      0.00153437     0.00066667    F
 
 
--------
Geometry
--------
Formula: H2Cl5O2Pa
Atoms
  Index Symbol   x (angstrom)   y (angstrom)   z (angstrom)
      1     Pa    -0.08876472     0.57967345     1.24856789       adf.R=2.200
      2     Cl     0.10840739     2.70569703    -0.43801310       adf.R=1.725
      3     Cl    -0.03281438    -0.57167365     3.76270966       adf.R=1.725
      4     Cl     0.10854373     2.70326279     2.93806429       adf.R=1.725
      5     Cl    -0.03237742    -0.57015677    -1.26631175       adf.R=1.725
      6     Cl     2.53188564     0.37631197     1.24887549       adf.R=1.725
      7      O    -1.91565737     0.61827095     1.24840602       adf.R=1.517
      8      O    -0.16348024    -1.98628631     1.24919077       adf.R=1.517
      9      H     0.19210190    -2.41963634     0.46484410       adf.R=1.350
     10      H     0.19499306    -2.41220907     2.03636068       adf.R=1.350
 
Total System Charge            -2.00000
Bonding info available!
 
 *** GO1_GOStep14 ***

 SOLVATION
-------------------------------------------

  The Delley construction of COSMO surface surface is calculated

       Division Level for Surface Triangles (NDIV)                  3
       Final Division Level for Triangles (NFDIV)                   1
       Radius of the Solvent (RSOL)                           1.93000 angstr
  Dielectric Constant (EPSL)                                 78.39000

       COSMO equation is solved iteratively-               conjugate-gradient

       Maximun of Iterations for Charges (NCIX)                  1000
       Criterion for Charge convergence (CCNV)                1.0E-08

  COSMO charges included variationally in SCF

       COSMO included at every SCF cycle

  Geometry-dependent empirical factor                         0.00000

  C-Matrix calculated in cspmtx

  In cspmtx, C-Matrix calculated using fitted potential

-------------------------------------------



 -------------------------------------------
  COSMO surface
  Area             =          620.414
  Volume           =         1147.922
  Number of Points =         1421
 -------------------------------------------



 ======================
 RI Hartree-Fock Scheme
 ======================
  
 Fit Set Quality     : GOOD
 Threshold Quality   : GOOD
 Integration Quality : GOOD
 Fit Generation Method : AUTO
 Response Quality    : DEFAULT
 Is Range Separated  :  F
 
 RIHartreeFock Dependency: number of modified vectors:           7
 cosmo_calcen: 0.5 (esolb+esolc) (Hartrees) =   -0.293001

 Solvation energy (screening term,uncorrected) =   -183.860865 kcal/mol

 Solvation energy (dispersion and cavitation terms) =      1.160126 kcal/mol
 Solvation Energy Contributions (Hartrees)
          esola   esolb+esolc
     0.29300091   -0.58600181
 esol last cycle   -0.29300091
  
 Hartree-Fock exchange energy:   -622.394503657120     
 cosmo_calcen: 0.5 (esolb+esolc) (Hartrees) =   -0.293001

 Solvation energy (screening term,uncorrected) =   -183.860873 kcal/mol

 Solvation energy (dispersion and cavitation terms) =      1.160126 kcal/mol
 Solvation Energy Contributions (Hartrees)
          esola   esolb+esolc
     0.29300092   -0.58600184
 esol last cycle   -0.29300092

 Energy gradients wrt nuclear displacements
 ==========================================

     Atom      Cartesian (a.u./angstrom)
                 X         Y         Z
 ----------------------------------------
     1 Pa    0.000025  0.000013  0.000134
     2 Cl    0.000100  0.000037  0.000007
     3 Cl   -0.000032  0.000031 -0.000062
     4 Cl    0.000099 -0.000043 -0.000000
     5 Cl    0.000001 -0.000017 -0.000060
     6 Cl    0.000014 -0.000086  0.000007
     7 O     0.000023  0.000070 -0.000004
     8 O    -0.000066  0.000004 -0.000053
     9 H    -0.000195 -0.000255  0.000019
    10 H     0.000031  0.000247  0.000014
 ----------------------------------------
 Mulliken charges used for AMS results%charges...
 
----------------------------------------------------------------------
Geometry Convergence after Step  14       (Hartree/Angstrom,Angstrom)
----------------------------------------------------------------------
current energy                               -2.81422378 Hartree
energy change                       0.00000077     0.00001000    T
constrained gradient max            0.00024819     0.00010000    F
constrained gradient rms            0.00007840     0.00006667    F
gradient max                        0.00024819
gradient rms                        0.00007840
cart. step max                      0.00290145     0.00100000    F
cart. step rms                      0.00094697     0.00066667    F
 
 
--------
Geometry
--------
Formula: H2Cl5O2Pa
Atoms
  Index Symbol   x (angstrom)   y (angstrom)   z (angstrom)
      1     Pa    -0.08876831     0.57966645     1.24914566       adf.R=2.200
      2     Cl     0.10832033     2.70477996    -0.43861882       adf.R=1.725
      3     Cl    -0.03281199    -0.57107256     3.76348365       adf.R=1.725
      4     Cl     0.10866737     2.70421542     2.93750697       adf.R=1.725
      5     Cl    -0.03253749    -0.57077536    -1.26548952       adf.R=1.725
      6     Cl     2.53187794     0.37627471     1.24920579       adf.R=1.725
      7      O    -1.91565626     0.61830177     1.24907425       adf.R=1.517
      8      O    -0.16348486    -1.98632585     1.24923834       adf.R=1.517
      9      H     0.19334308    -2.41673489     0.46380516       adf.R=1.350
     10      H     0.19388778    -2.41507560     2.03534259       adf.R=1.350
 
Total System Charge            -2.00000
Bonding info available!
 
 *** GO1_GOStep15 ***

 SOLVATION
-------------------------------------------

  The Delley construction of COSMO surface surface is calculated

       Division Level for Surface Triangles (NDIV)                  3
       Final Division Level for Triangles (NFDIV)                   1
       Radius of the Solvent (RSOL)                           1.93000 angstr
  Dielectric Constant (EPSL)                                 78.39000

       COSMO equation is solved iteratively-               conjugate-gradient

       Maximun of Iterations for Charges (NCIX)                  1000
       Criterion for Charge convergence (CCNV)                1.0E-08

  COSMO charges included variationally in SCF

       COSMO included at every SCF cycle

  Geometry-dependent empirical factor                         0.00000

  C-Matrix calculated in cspmtx

  In cspmtx, C-Matrix calculated using fitted potential

-------------------------------------------



 -------------------------------------------
  COSMO surface
  Area             =          620.420
  Volume           =         1147.926
  Number of Points =         1421
 -------------------------------------------



 ======================
 RI Hartree-Fock Scheme
 ======================
  
 Fit Set Quality     : GOOD
 Threshold Quality   : GOOD
 Integration Quality : GOOD
 Fit Generation Method : AUTO
 Response Quality    : DEFAULT
 Is Range Separated  :  F
 
 RIHartreeFock Dependency: number of modified vectors:           7
 cosmo_calcen: 0.5 (esolb+esolc) (Hartrees) =   -0.293000

 Solvation energy (screening term,uncorrected) =   -183.860358 kcal/mol

 Solvation energy (dispersion and cavitation terms) =      1.160138 kcal/mol
 Solvation Energy Contributions (Hartrees)
          esola   esolb+esolc
     0.29300010   -0.58600020
 esol last cycle   -0.29300010
  
 Hartree-Fock exchange energy:   -622.394496207239     
 cosmo_calcen: 0.5 (esolb+esolc) (Hartrees) =   -0.293000

 Solvation energy (screening term,uncorrected) =   -183.860366 kcal/mol

 Solvation energy (dispersion and cavitation terms) =      1.160138 kcal/mol
 Solvation Energy Contributions (Hartrees)
          esola   esolb+esolc
     0.29300011   -0.58600022
 esol last cycle   -0.29300011

 Energy gradients wrt nuclear displacements
 ==========================================

     Atom      Cartesian (a.u./angstrom)
                 X         Y         Z
 ----------------------------------------
     1 Pa    0.000024  0.000005  0.000050
     2 Cl    0.000100  0.000022 -0.000002
     3 Cl   -0.000020  0.000016 -0.000026
     4 Cl    0.000098 -0.000018  0.000001
     5 Cl   -0.000013 -0.000003 -0.000018
     6 Cl    0.000015 -0.000086  0.000002
     7 O     0.000025  0.000071 -0.000003
     8 O    -0.000068  0.000000 -0.000006
     9 H    -0.000141 -0.000166 -0.000002
    10 H    -0.000021  0.000160  0.000004
 ----------------------------------------
 Mulliken charges used for AMS results%charges...
 
----------------------------------------------------------------------
Geometry Convergence after Step  15       (Hartree/Angstrom,Angstrom)
----------------------------------------------------------------------
current energy                               -2.81422454 Hartree
energy change                      -0.00000077     0.00001000    T
constrained gradient max            0.00016046     0.00010000    F
constrained gradient rms            0.00004623     0.00006667    T
gradient max                        0.00016046
gradient rms                        0.00004623
cart. step max                      0.00465018     0.00100000    F
cart. step rms                      0.00151380     0.00066667    F
 
 
--------
Geometry
--------
Formula: H2Cl5O2Pa
Atoms
  Index Symbol   x (angstrom)   y (angstrom)   z (angstrom)
      1     Pa    -0.08877765     0.57965183     1.25007180       adf.R=2.200
      2     Cl     0.10804310     2.70333060    -0.43956646       adf.R=1.725
      3     Cl    -0.03290166    -0.57005525     3.76473014       adf.R=1.725
      4     Cl     0.10899626     2.70570573     2.93661605       adf.R=1.725
      5     Cl    -0.03264405    -0.57179412    -1.26419053       adf.R=1.725
      6     Cl     2.53186238     0.37621837     1.24971814       adf.R=1.725
      7      O    -1.91565966     0.61833794     1.25016067       adf.R=1.517
      8      O    -0.16349782    -1.98638542     1.24931681       adf.R=1.517
      9      H     0.19526118    -2.41208471     0.46216473       adf.R=1.350
     10      H     0.19215552    -2.41967092     2.03367271       adf.R=1.350
 
Total System Charge            -2.00000
Bonding info available!
 
 *** GO1_GOStep16 ***

 SOLVATION
-------------------------------------------

  The Delley construction of COSMO surface surface is calculated

       Division Level for Surface Triangles (NDIV)                  3
       Final Division Level for Triangles (NFDIV)                   1
       Radius of the Solvent (RSOL)                           1.93000 angstr
  Dielectric Constant (EPSL)                                 78.39000

       COSMO equation is solved iteratively-               conjugate-gradient

       Maximun of Iterations for Charges (NCIX)                  1000
       Criterion for Charge convergence (CCNV)                1.0E-08

  COSMO charges included variationally in SCF

       COSMO included at every SCF cycle

  Geometry-dependent empirical factor                         0.00000

  C-Matrix calculated in cspmtx

  In cspmtx, C-Matrix calculated using fitted potential

-------------------------------------------



 -------------------------------------------
  COSMO surface
  Area             =          620.411
  Volume           =         1147.900
  Number of Points =         1421
 -------------------------------------------



 ======================
 RI Hartree-Fock Scheme
 ======================
  
 Fit Set Quality     : GOOD
 Threshold Quality   : GOOD
 Integration Quality : GOOD
 Fit Generation Method : AUTO
 Response Quality    : DEFAULT
 Is Range Separated  :  F
 
 RIHartreeFock Dependency: number of modified vectors:           7
 cosmo_calcen: 0.5 (esolb+esolc) (Hartrees) =   -0.292999

 Solvation energy (screening term,uncorrected) =   -183.859747 kcal/mol

 Solvation energy (dispersion and cavitation terms) =      1.160121 kcal/mol
 Solvation Energy Contributions (Hartrees)
          esola   esolb+esolc
     0.29299913   -0.58599825
 esol last cycle   -0.29299913
  
 Hartree-Fock exchange energy:   -622.394492083525     
 cosmo_calcen: 0.5 (esolb+esolc) (Hartrees) =   -0.292999

 Solvation energy (screening term,uncorrected) =   -183.859755 kcal/mol

 Solvation energy (dispersion and cavitation terms) =      1.160121 kcal/mol
 Solvation Energy Contributions (Hartrees)
          esola   esolb+esolc
     0.29299914   -0.58599828
 esol last cycle   -0.29299914

 Energy gradients wrt nuclear displacements
 ==========================================

     Atom      Cartesian (a.u./angstrom)
                 X         Y         Z
 ----------------------------------------
     1 Pa    0.000024 -0.000008 -0.000086
     2 Cl    0.000095 -0.000024 -0.000013
     3 Cl   -0.000006 -0.000003  0.000033
     4 Cl    0.000104  0.000041  0.000003
     5 Cl   -0.000031  0.000018  0.000046
     6 Cl    0.000017 -0.000086 -0.000007
     7 O     0.000028  0.000071  0.000003
     8 O    -0.000068 -0.000012  0.000030
     9 H     0.000018  0.000257  0.000004
    10 H    -0.000180 -0.000255 -0.000012
[...]
                                    2.72%     6 P:y            -0.239  0.00     1 Pa
                                   -2.16%     3 P:y             7.199  0.00     2 Cl
                                   -2.15%     3 P:y             7.199  0.00     4 Cl
                                    2.08%     4 D:xy           -1.800  0.20     1 Pa
                                   -1.55%     2 P:x            10.811  0.00     8 O
                                   -1.18%     3 P:y             7.199  0.00     5 Cl
                                   -1.17%     3 P:y             7.199  0.00     3 Cl
                                    1.14%     4 D:x2-y2        -1.800  0.20     1 Pa
                                   -1.08%     4 S               6.405  0.00     4 Cl
                                   -1.08%     4 S               6.405  0.00     2 Cl
       2.803  0.00   116 A         76.08%     5 D:xz            2.364  0.00     1 Pa
                                   40.24%     4 D:xz           -1.800  0.20     1 Pa
                                   -6.34%     3 P:z             7.199  0.00     6 Cl
                                   -5.92%     2 P:z            10.811  0.00     7 O
                                   -5.37%     3 P:x             7.199  0.00     5 Cl
                                   -5.32%     3 P:x             7.199  0.00     3 Cl
                                   -2.78%     3 P:x             7.199  0.00     4 Cl
                                   -2.72%     3 P:x             7.199  0.00     2 Cl
                                    2.70%     5 D:yz            2.364  0.00     1 Pa
                                    2.64%     1 P:z            -9.955  1.33     7 O
                                    1.01%     2 P:x            -9.674  1.67     5 Cl
                                    1.00%     2 P:x            -9.674  1.67     3 Cl
       3.145  0.00   117 A         67.63%     5 D:yz            2.364  0.00     1 Pa
                                   29.84%     6 P:z            -0.239  0.00     1 Pa
                                   -9.31%     4 S               6.405  0.00     4 Cl
                                   -9.22%     4 S               6.405  0.00     2 Cl
                                    6.90%     5 D:xz            2.364  0.00     1 Pa
                                   -3.90%     4 D:yz           -1.800  0.20     1 Pa
                                    3.57%     1 S              -6.582  1.00    10 H
                                    3.51%     1 S              -6.582  1.00     9 H
                                   -1.88%     3 P:y             7.199  0.00     5 Cl
                                   -1.84%     3 P:y             7.199  0.00     3 Cl
                                    1.13%     2 S               3.073  0.00     9 H
                                    1.10%     2 S               3.073  0.00    10 H
       3.517  0.00   118 A        117.29%     6 P:x            -0.239  0.00     1 Pa
                                  -20.98%     4 S               6.405  0.00     6 Cl
                                    4.22%     3 P:x             7.199  0.00     6 Cl
                                   -2.41%     3 S              23.286  0.00     7 O
                                   -1.91%     7 S              -4.760  2.00     1 Pa
                                   -1.84%     2 P:x            10.811  0.00     7 O
                                    1.47%     1 P:x            -9.955  1.33     7 O
                                    1.44%     3 S             -23.229  2.00     6 Cl
                                   -1.34%     3 P:x             7.199  0.00     2 Cl
                                   -1.34%     3 P:x             7.199  0.00     4 Cl
                                    1.12%     5 D:xy            2.364  0.00     1 Pa
                                   -1.02%     3 P:x             7.199  0.00     5 Cl
                                   -1.02%     3 P:x             7.199  0.00     3 Cl

 Energy gradients wrt nuclear displacements
 ==========================================

     Atom      Cartesian (a.u./angstrom)
                 X         Y         Z
 ----------------------------------------
     1 Pa   -0.000010  0.000011  0.000027
     2 Cl    0.000109  0.000030  0.000010
     3 Cl   -0.000009 -0.000004 -0.000014
     4 Cl    0.000092 -0.000028  0.000008
     5 Cl   -0.000022  0.000011 -0.000012
     6 Cl    0.000018 -0.000086 -0.000005
     7 O     0.000052  0.000064 -0.000011
     8 O    -0.000061  0.000005  0.000124
     9 H     0.000021 -0.000309 -0.000053
    10 H    -0.000190  0.000307 -0.000075
 ----------------------------------------



 =======================================================================
 Electrostatic potential at the Nuclei due to electrons and other nuclei
 =======================================================================
  
         Atom                  Potential
         ----                  ---------
     1)   Pa                787.66690011
     2)   Cl                 65.23489714
     3)   Cl                 65.19941914
     4)   Cl                 65.23493676
     5)   Cl                 65.19962588
     6)   Cl                 65.17334697
     7)   O                  22.71936134
     8)   O                  22.55831954
     9)   H                   1.15885454
    10)   H                   1.15957434
 Mulliken charges used for AMS results%charges...


    =====================
     CALCULATION RESULTS
    =====================

Energy (hartree)            -2.81422471

Gradients (hartree/bohr)
  Index   Atom            d/dx            d/dy            d/dz
      1     Pa   -0.0000053168    0.0000059704    0.0000144671
      2     Cl    0.0000576286    0.0000158385    0.0000051693
      3     Cl   -0.0000045844   -0.0000019922   -0.0000072257
      4     Cl    0.0000489378   -0.0000150413    0.0000044825
      5     Cl   -0.0000116178    0.0000055949   -0.0000065493
      6     Cl    0.0000093709   -0.0000455361   -0.0000024643
      7      O    0.0000273811    0.0000336738   -0.0000057141
      8      O   -0.0000324177    0.0000026084    0.0000655135
      9      H    0.0000112138   -0.0001633793   -0.0000278292
     10      H   -0.0001005955    0.0001622631   -0.0000398499

PES point character: Geometry corresponds to a non-stationary point on the PES.
                     At least one gradient component is too large!
                     (Note: The threshold for what is considered a small enough gradient is
                     configured with the GeometryOptimization%Convergence%Gradients keyword.)


--------------
Atomic charges
--------------
  Index   Atom    Charge
      1     Pa    1.6211
      2     Cl   -0.5941
      3     Cl   -0.6193
      4     Cl   -0.5942
      5     Cl   -0.6189
      6     Cl   -0.4712
      7      O   -0.8019
      8      O   -0.4118
      9      H    0.2450
     10      H    0.2452


Dipole moment vector    (Debye):     0.24572939  -14.46416653  -11.99255786
              magnitude (Debye):    18.79079403


-----------------------
Molecular orbitals info
-----------------------
n orbitals:              379
n spin:                    1

Note: only printing virtual orbitals with
      energy smaller than HOMO + 100. eV

HOMO (eV):              -7.4627
LUMO (eV):              -1.7821
HOMO-LUMO gap (eV):      5.6807

   Index   Energy (eV)    Occupation
     280       91.0255         0.000       
     279       89.3630         0.000       
     278       87.7090         0.000       
     277       86.8279         0.000       
     276       83.8977         0.000       
     275       83.2110         0.000       
     274       82.9333         0.000       
     273       81.9281         0.000       
     272       80.5344         0.000       
     271       80.1691         0.000       
     270       79.3445         0.000       
     269       78.8004         0.000       
     268       76.2597         0.000       
     267       75.0789         0.000       
     266       73.9232         0.000       
     265       73.7078         0.000       
     264       73.5778         0.000       
     263       73.0131         0.000       
     262       72.8550         0.000       
     261       71.1826         0.000       
     260       71.0299         0.000       
     259       70.7261         0.000       
     258       70.0717         0.000       
     257       69.9089         0.000       
     256       69.1120         0.000       
     255       68.9751         0.000       
     254       68.8776         0.000       
     253       68.0610         0.000       
     252       67.8442         0.000       
     251       66.9618         0.000       
     250       66.7623         0.000       
     249       65.9211         0.000       
     248       65.3039         0.000       
     247       63.6320         0.000       
     246       60.2534         0.000       
     245       59.9955         0.000       
     244       59.5166         0.000       
     243       56.5772         0.000       
     242       55.9366         0.000       
     241       54.8147         0.000       
     240       52.7134         0.000       
     239       50.6432         0.000       
     238       50.5837         0.000       
     237       48.5965         0.000       
     236       48.3528         0.000       
     235       43.5429         0.000       
     234       43.4057         0.000       
     233       42.7800         0.000       
     232       42.6937         0.000       
     231       41.5701         0.000       
     230       41.0970         0.000       
     229       41.0213         0.000       
     228       40.8839         0.000       
     227       40.3606         0.000       
     226       40.1294         0.000       
     225       39.8432         0.000       
     224       39.7122         0.000       
     223       39.3425         0.000       
     222       39.0490         0.000       
     221       38.9460         0.000       
     220       38.7305         0.000       
     219       38.2780         0.000       
     218       38.2499         0.000       
     217       38.0284         0.000       
     216       37.9006         0.000       
     215       37.8132         0.000       
     214       37.5550         0.000       
     213       37.3811         0.000       
     212       37.3671         0.000       
     211       37.3126         0.000       
     210       37.1176         0.000       
     209       37.0219         0.000       
     208       36.8279         0.000       
     207       36.7491         0.000       
     206       36.4842         0.000       
     205       36.3828         0.000       
     204       36.1568         0.000       
     203       35.9834         0.000       
     202       35.9207         0.000       
     201       35.1877         0.000       
     200       34.9655         0.000       
     199       34.6981         0.000       
     198       34.6139         0.000       
     197       34.0233         0.000       
     196       33.9082         0.000       
     195       33.5641         0.000       
     194       32.5595         0.000       
     193       31.3271         0.000       
     192       30.0760         0.000       
     191       29.2698         0.000       
     190       28.8409         0.000       
     189       27.8682         0.000       
     188       27.2003         0.000       
     187       26.2384         0.000       
     186       25.5689         0.000       
     185       25.0598         0.000       
     184       24.4359         0.000       
     183       24.0959         0.000       
     182       23.7964         0.000       
     181       23.5812         0.000       
     180       22.9804         0.000       
     179       22.3519         0.000       
     178       21.8179         0.000       
     177       21.6983         0.000       
     176       21.6547         0.000       
     175       21.0678         0.000       
     174       20.2516         0.000       
     173       20.1934         0.000       
     172       18.9241         0.000       
     171       18.7927         0.000       
     170       18.3320         0.000       
     169       17.9251         0.000       
     168       17.8356         0.000       
     167       17.6416         0.000       
     166       16.8016         0.000       
     165       16.6394         0.000       
     164       15.9425         0.000       
     163       15.8636         0.000       
     162       15.7245         0.000       
     161       15.6708         0.000       
     160       15.4143         0.000       
     159       15.4017         0.000       
     158       14.9344         0.000       
     157       14.4787         0.000       
     156       14.3563         0.000       
     155       14.2593         0.000       
     154       14.2451         0.000       
     153       14.0709         0.000       
     152       13.6153         0.000       
     151       13.4378         0.000       
     150       13.3561         0.000       
     149       13.1426         0.000       
     148       12.6065         0.000       
     147       12.4606         0.000       
     146       12.1079         0.000       
     145       12.0916         0.000       
     144       11.5290         0.000       
     143       11.2734         0.000       
     142       11.1198         0.000       
     141       11.0999         0.000       
     140       10.8306         0.000       
     139       10.4633         0.000       
     138       10.3091         0.000       
     137        9.8904         0.000       
     136        9.8242         0.000       
     135        9.5513         0.000       
     134        9.4143         0.000       
     133        9.3143         0.000       
     132        9.3088         0.000       
     131        8.9882         0.000       
     130        8.8120         0.000       
     129        8.4931         0.000       
     128        8.3209         0.000       
     127        7.8665         0.000       
     126        7.5982         0.000       
     125        7.3564         0.000       
     124        7.2399         0.000       
     123        7.0871         0.000       
     122        6.0503         0.000       
     121        5.5880         0.000       
     120        4.5902         0.000       
     119        4.0125         0.000       
     118        3.5172         0.000       
     117        3.1446         0.000       
     116        2.8025         0.000       
     115        2.7849         0.000       
     114        2.6515         0.000       
     113        2.3046         0.000       
     112        2.2808         0.000       
     111        1.7829         0.000       
     110        1.6939         0.000       
     109        1.6456         0.000       
     108        1.4594         0.000       
     107        0.9874         0.000       
     106        0.2058         0.000       
     105       -0.7924         0.000       
     104       -1.4503         0.000       
     103       -1.4534         0.000       
     102       -1.6034         0.000       
     101       -1.6938         0.000       
     100       -1.7687         0.000       
      99       -1.7821         0.000 < LUMO
      98       -7.4627         2.000 < HOMO
      97       -7.9067         2.000       
      96       -8.0157         2.000       
      95       -8.0676         2.000       
      94       -8.1503         2.000       
      93       -8.1979         2.000       
      92       -8.2502         2.000       
      91       -8.5933         2.000       
      90       -8.6580         2.000       
      89       -8.7076         2.000       
      88       -9.0043         2.000       
      87       -9.0499         2.000       
      86       -9.1278         2.000       
      85       -9.3334         2.000       
      84       -9.6456         2.000       
      83       -9.9469         2.000       
      82      -10.2071         2.000       
      81      -10.3640         2.000       
      80      -10.7312         2.000       
      79      -12.6451         2.000       
      78      -16.0593         2.000       
      77      -20.5870         2.000       
      76      -20.9256         2.000       
      75      -20.9951         2.000       
      74      -21.2567         2.000       
      73      -21.4914         2.000       
      72      -22.5334         2.000       
      71      -25.6090         2.000       
      70      -25.7700         2.000       
      69      -29.4807         2.000       
      68      -29.6851         2.000       
      67      -50.2342         2.000       
      66     -100.1661         2.000       
      65     -100.2100         2.000       
      64     -100.2157         2.000       
      63     -100.3100         2.000       
      62     -100.3106         2.000       
      61     -195.8090         2.000       
      60     -195.8099         2.000       
      59     -195.8169         2.000       
      58     -195.8178         2.000       
      57     -195.8200         2.000       
      56     -195.8211         2.000       
      55     -195.8243         2.000       
      54     -195.8254         2.000       
      53     -195.8486         2.000       
      52     -195.8494         2.000       
      51     -195.8582         2.000       
      50     -195.8593         2.000       
      49     -196.4094         2.000       
      48     -196.4116         2.000       
      47     -196.4436         2.000       
      46     -207.3128         2.000       
      45     -207.5806         2.000       
      44     -207.5902         2.000       
      43     -259.3758         2.000       
      42     -259.3767         2.000       
      41     -259.3850         2.000       
      40     -259.3861         2.000       
      39     -259.9733         2.000       
      38     -306.0199         2.000       
      37     -361.2665         2.000       
      36     -361.3005         2.000       
      35     -361.3058         2.000       
      34     -361.4350         2.000       
      33     -361.4427         2.000       
      32     -361.5712         2.000       
      31     -361.5729         2.000       
      30     -522.5857         2.000       
      29     -524.1134         2.000       
      28     -713.0834         2.000       
      27     -713.2337         2.000       
      26     -713.2393         2.000       
      25     -713.4165         2.000       
      24     -713.4287         2.000       
      23    -1041.3649         2.000       
      22    -1041.6802         2.000       
      21    -1041.6897         2.000       
      20    -1359.7567         2.000       
      19    -2775.5573         2.000       
      18    -2775.5582         2.000       
      17    -2775.5673         2.000       
      16    -2775.5684         2.000       
      15    -2776.1557         2.000       
      14    -3484.9703         2.000       
      13    -3485.0279         2.000       
      12    -3485.0300         2.000       
      11    -3485.1132         2.000       
      10    -3485.1175         2.000       
       9    -4347.1816         2.000       
       8    -4347.3584         2.000       
       7    -4347.3631         2.000       
       6    -5318.3616         2.000       
       5   -17561.3075         2.000       
       4   -17561.3316         2.000       
       3   -17561.3322         2.000       
       2   -21037.1240         2.000       
       1  -112698.9162         2.000       

ERROR: Geometry optimization failed! (Did not converge.)


AMS application finished. Exiting.
NORMAL TERMINATION
     Total cpu time:   70085.91
  Total system time:    2458.21
 Total elapsed time:   72604.15
