

 Parallel Execution: Process Information
 ==============================================================================
 Rank   Node Name                              NodeID   MyNodeRank  NodeMaster
    0   u-0-11.local                              0          0          0
    1   u-0-11.local                              0          1         -1
    2   u-0-11.local                              0          2         -1
    3   u-0-11.local                              0          3         -1
    4   u-0-11.local                              1          0          1
    5   u-0-11.local                              1          1         -1
    6   u-0-11.local                              1          2         -1
    7   u-0-11.local                              1          3         -1
    8   u-0-11.local                              2          0          2
    9   u-0-11.local                              2          1         -1
   10   u-0-11.local                              2          2         -1
   11   u-0-11.local                              2          3         -1
   12   u-0-11.local                              3          0          3
   13   u-0-11.local                              3          1         -1
   14   u-0-11.local                              3          2         -1
   15   u-0-11.local                              3          3         -1
 ==============================================================================


May use up to 31200MB of RAM as shared memory on node 0
May use up to 31250MB of RAM as shared memory on node 1
May use up to 31250MB of RAM as shared memory on node 2
May use up to 31250MB of RAM as shared memory on node 3

 *******************************************************************************
 *                                                                             *
 *  --------------------------------                                           *
 *   Amsterdam Modeling Suite (AMS)              2023.104                      *
 *  --------------------------------                                           *
 *                                               r115785 2023-10-06            *
 *                                                                             *
 *                                                                             *
 *                              =================                              *
 *                              |               |                              *
 *                              |     A M S     |                              *
 *                              |               |                              *
 *                              =================                              *
 *                                                                             *
 *                                                                             *
 *   Online information and documentation:  https://www.scm.com/support/       *
 *   E-mail:  support@scm.com   info@scm.com                                   *
 *                                                                             *
 *   Scientific publications using AMS results must be properly referenced     *
 *   See the User Manuals (or the web site) for recommended citations          *
 *   The terms and conditions of the End User License Agreement apply to       *
 *   the use of AMS, https://www.scm.com/license-terms/                        *
 *                                                                             *
 **********************  x86_64_linux_intel / intelmpi  ************************
 
 Licensed to: Dr. Val?rie Vallet / Laboratoire PhLAM UMR 8523 / Villeneuve d'Ascq Cedex / FRANCE 2024-02-19 16:59:55
 SCM User ID: u10325
  
 AMS 2023.104  RunTime: Jun13-2024 17:27:39  ShM Nodes: 4  Procs: 16

 AMS jobname: pao_cl5_h2o.pbe0.tz2p.opt-freq-solvation
 AMS jobid  : 1904038862

 Start   directory: /home/shaaban/ams/PhD/geometries-exafs/paocl3/pao_cl5_h2o/PBE0/
 Results directory: /home/shaaban/ams/PhD/geometries-exafs/paocl3/pao_cl5_h2o/PBE0/pao_cl5_h2o.pbe0.tz2p.opt-freq-solvation.results/
 Scratch directory: /state/partition2/shaaban/1020794.phlam-s-sakura/amstmp_pao_cl5_h2o.pbe0.tz2p.opt-freq-solvation_kid0.1904038862/


 Communication costs MPI_COMM_WORLD:      7.980 usec per message,   0.0055 usec per 8-byte item
 Communication costs for intra-node:      1.826 usec per message,   0.0037 usec per 8-byte item

 RNG seed: -327813557 13285006 -1119293194 1513756970 -373224808 -1729887511 -273685939 1023780997
Floating license problem: error getting info for file /share/apps/FloatADF/Linuxu-0-8.local44:A8:42:18:D1:32.43123.682
Floating license problem: error getting info for file /share/apps/FloatADF/Linuxu-0-8.local44:A8:42:18:D1:32.43123.682
waiting for floating license...
Floating license problem: error getting info for file /share/apps/FloatADF/Linuxu-0-5.localC8:1F:66:F6:F0:31.61127.682
Floating license problem: error getting info for file /share/apps/FloatADF/Linuxu-0-5.localC8:1F:66:F6:F0:31.61127.682
waiting for floating license...
Floating license problem: error getting info for file /share/apps/FloatADF/Linuxu-5-2.local44:A8:42:1C:3E:9D.33430.682
Floating license problem: error getting info for file /share/apps/FloatADF/Linuxu-5-2.local44:A8:42:1C:3E:9D.33430.682
waiting for floating license...
Floating license problem: error getting info for file /share/apps/FloatADF/Linuxu-5-2.local44:A8:42:1C:3E:9D.33435.682
Floating license problem: error getting info for file /share/apps/FloatADF/Linuxu-5-2.local44:A8:42:1C:3E:9D.33435.682
Floating license problem: error getting info for file /share/apps/FloatADF/Linuxu-5-2.local44:A8:42:1C:3E:9D.33435.682
waiting for floating license...
Floating license problem: error getting info for file /share/apps/FloatADF/Linuxu-5-2.local44:A8:42:1C:3E:9D.33435.682
waiting for floating license...
Floating license problem: error getting info for file /share/apps/FloatADF/Linuxu-0-8.local44:A8:42:18:D1:32.43491.682
Floating license problem: error getting info for file /share/apps/FloatADF/Linuxu-0-8.local44:A8:42:18:D1:32.43491.682
waiting for floating license...
Floating license problem: error getting info for file /share/apps/FloatADF/Linuxu-0-8.local44:A8:42:18:D1:32.43491.682
Floating license problem: error getting info for file /share/apps/FloatADF/Linuxu-0-8.local44:A8:42:18:D1:32.43491.682
waiting for floating license...
Floating license problem: error getting info for file /share/apps/FloatADF/Linuxu-5-2.local44:A8:42:1C:3E:9D.33430.682
Floating license problem: error getting info for file /share/apps/FloatADF/Linuxu-5-2.local44:A8:42:1C:3E:9D.33430.682
Floating license problem: error getting info for file /share/apps/FloatADF/Linuxu-5-2.local44:A8:42:1C:3E:9D.33430.682
waiting for floating license...
Floating license problem: error getting info for file /share/apps/FloatADF/Linuxu-0-5.localC8:1F:66:F6:F0:31.61127.682
Floating license problem: error getting info for file /share/apps/FloatADF/Linuxu-0-5.localC8:1F:66:F6:F0:31.61127.682
waiting for floating license...
Floating license problem: error getting info for file /share/apps/FloatADF/Linuxu-5-2.local44:A8:42:1C:3E:9D.33430.682
waiting for floating license...
Floating license problem: error getting info for file /share/apps/FloatADF/Linuxu-5-2.local44:A8:42:1C:3E:9D.33435.682
Floating license problem: error getting info for file /share/apps/FloatADF/Linuxu-5-2.local44:A8:42:1C:3E:9D.33435.682
waiting for floating license...
Floating license problem: error getting info for file /share/apps/FloatADF/Linuxu-0-8.local44:A8:42:18:D1:32.43491.682
Floating license problem: error getting info for file /share/apps/FloatADF/Linuxu-0-8.local44:A8:42:18:D1:32.43491.682
waiting for floating license...
Floating license problem: error getting info for file /share/apps/FloatADF/Linuxu-5-4.local44:A8:42:31:67:FF.192596.682
Floating license problem: error getting info for file /share/apps/FloatADF/Linuxu-5-4.local44:A8:42:31:67:FF.192596.682
Floating license problem: error getting info for file /share/apps/FloatADF/Linuxu-5-4.local44:A8:42:31:67:FF.192596.682
Floating license problem: error getting info for file /share/apps/FloatADF/Linuxu-5-4.local44:A8:42:31:67:FF.192596.682
waiting for floating license...
waiting for floating license...
Floating license problem: error getting info for file /share/apps/FloatADF/Linuxu-0-8.local44:A8:42:18:D1:32.43117.682
Floating license problem: error getting info for file /share/apps/FloatADF/Linuxu-0-8.local44:A8:42:18:D1:32.43117.682
waiting for floating license...



                     *************************************************************************
                     *  ADF 2023.104  RunTime: Jun13-2024 17:27:42  ShM Nodes: 4  Procs: 16  *
                     *************************************************************************
  

       ***************************
       *  GEOMETRY OPTIMIZATION  *
       ***************************

Optimization Method                    Quasi Newton
Optimization Coordinates               Delocalized Coordinates
Optimize lattice                       F
 
 ------------------------------------------------------
 Convergence criteria (Hartree,Angstrom)
 ------------------------------------------------------
 Maximum gradient               0.000100000000
 Maximum rms gradient           0.000066666667
 Maximum step allowed           0.001000000000
 Maximum rms step allowed       0.000666666667
 Maximum energy change allowe   0.000010000000
 Maximum stress energy allowe   0.000500000000
 
Initial model Hessian                  Automatic Hessian
 
------------------------------------
Quasi-Newton Optimizer Parameters
------------------------------------
Hessian Update Method                  BFGS
Maximum number of steps                  250
First GDIIS cycle                          0
Maximum GDIIS vectors                      0
Trust radius (bohr)                        0.200000
Trust radius varies                        T
Constraints converged at all steps         T
Use projector                              T
 
 Rigid motions settings for: old optimizer
 Atomic rotations (x,y,z):     T T T
 Atomic translations (x,y,z):  T T T
 Tolerance:                   1.000000000000000E-006
 
--------
Geometry
--------
Formula: H2Cl5O2Pa
Atoms
  Index Symbol   x (angstrom)   y (angstrom)   z (angstrom)
      1     Pa    -0.00370611    -0.70162475     0.41603012       adf.R=2.200
      2     Cl    -0.91805129     1.78503036    -0.36572201       adf.R=1.725
      3     Cl     1.67737830    -2.41285301     1.85109565       adf.R=1.725
      4     Cl     1.42483450     1.01791207     2.02286661       adf.R=1.725
      5     Cl    -1.78953450    -1.24845460    -1.69622711       adf.R=1.725
      6     Cl     1.90420205    -0.56959300    -1.42836975       adf.R=1.725
      7      O    -1.34980611    -0.86389938     1.66553187       adf.R=1.517
      8      O    -0.36294809    -3.21073894    -0.09109387       adf.R=1.517
      9      H    -0.74599677    -3.43183093    -0.95112284       adf.R=1.350
     10      H     0.34609808    -3.83420574     0.11465719       adf.R=1.350
 
Total System Charge            -2.00000
Bonding info available!
 
 
----------------
ADF Engine Input
----------------
 
 Basis
 Type TZ2P
 Core None
 End
 XC
 Hybrid PBE0
 End
 Solvation
 Surf Delley
 Solv name=Water cav0=0.0 cav1=0.0067639
 Charged method=CONJ
 C-Mat POT
 SCF VAR ALL
 CSMRSP
 End
 NumericalQuality Good
 

 Title: *** (NO TITLE) ***

 Using automatic Hessian for delocalized coordinates.
 *** GO1_GOStep1 ***

 SOLVATION
-------------------------------------------

  The Delley construction of COSMO surface surface is calculated

       Division Level for Surface Triangles (NDIV)                  3
       Final Division Level for Triangles (NFDIV)                   1
       Radius of the Solvent (RSOL)                           1.93000 angstr
  Dielectric Constant (EPSL)                                 78.39000

       COSMO equation is solved iteratively-               conjugate-gradient

       Maximun of Iterations for Charges (NCIX)                  1000
       Criterion for Charge convergence (CCNV)                1.0E-08

  COSMO charges included variationally in SCF

       COSMO included at every SCF cycle

  Geometry-dependent empirical factor                         0.00000

  C-Matrix calculated in cspmtx

  In cspmtx, C-Matrix calculated using fitted potential

-------------------------------------------



 -------------------------------------------
  COSMO surface
  Area             =          633.007
  Volume           =         1163.949
  Number of Points =         1423
 -------------------------------------------



 ======================
 RI Hartree-Fock Scheme
 ======================
  
 Fit Set Quality     : GOOD
 Threshold Quality   : GOOD
 Integration Quality : GOOD
 Fit Generation Method : AUTO
 Response Quality    : DEFAULT
 Is Range Separated  :  F
 
 RIHartreeFock Dependency: number of modified vectors:           7
 cosmo_calcen: 0.5 (esolb+esolc) (Hartrees) =   -0.292597

 Solvation energy (screening term,uncorrected) =   -183.607626 kcal/mol

 Solvation energy (dispersion and cavitation terms) =      1.183674 kcal/mol
 Solvation Energy Contributions (Hartrees)
          esola   esolb+esolc
     0.29259735   -0.58519469
 esol last cycle   -0.29259735
  
 Hartree-Fock exchange energy:   -622.340827151692     
 cosmo_calcen: 0.5 (esolb+esolc) (Hartrees) =   -0.292597

 Solvation energy (screening term,uncorrected) =   -183.607619 kcal/mol

 Solvation energy (dispersion and cavitation terms) =      1.183674 kcal/mol
 Solvation Energy Contributions (Hartrees)
          esola   esolb+esolc
     0.29259733   -0.58519467
 esol last cycle   -0.29259733

 Energy gradients wrt nuclear displacements
 ==========================================

     Atom      Cartesian (a.u./angstrom)
                 X         Y         Z
 ----------------------------------------
     1 Pa    0.013691  0.001949 -0.013874
     2 Cl   -0.004274  0.010327 -0.003065
     3 Cl    0.006904 -0.007138  0.006277
     4 Cl    0.005715  0.007324  0.007208
     5 Cl   -0.007302 -0.002338 -0.008395
     6 Cl    0.009529  0.000688 -0.009051
     7 O    -0.024071 -0.003224  0.022283
     8 O    -0.001765 -0.001393  0.001723
     9 H    -0.002414 -0.001964 -0.004661
    10 H     0.003986 -0.004232  0.001555
 ----------------------------------------
 Mulliken charges used for AMS results%charges...
 
----------------------------------------------------------------------
Geometry Convergence after Step   1       (Hartree/Angstrom,Angstrom)
----------------------------------------------------------------------
current energy                               -2.81260817 Hartree
energy change                      -2.81260817     0.00001000    F
constrained gradient max            0.02396733     0.00010000    F
constrained gradient rms            0.00867628     0.00006667    F
gradient max                        0.02396733
gradient rms                        0.00867628
cart. step max                      0.00904730     0.00100000    F
cart. step rms                      0.00473849     0.00066667    F
 
 
--------
Geometry
--------
Formula: H2Cl5O2Pa
Atoms
  Index Symbol   x (angstrom)   y (angstrom)   z (angstrom)
      1     Pa    -0.00613314    -0.70424414     0.41911284       adf.R=2.200
      2     Cl    -0.91470605     1.77598306    -0.36566465       adf.R=1.725
      3     Cl     1.67385717    -2.40999068     1.84824597       adf.R=1.725
      4     Cl     1.42162822     1.01282130     2.01738049       adf.R=1.725
      5     Cl    -1.78441442    -1.25061661    -1.69050389       adf.R=1.725
      6     Cl     1.89559225    -0.57198001    -1.42085855       adf.R=1.725
      7      O    -1.34172705    -0.86309369     1.65852168       adf.R=1.517
      8      O    -0.36478310    -3.20820357    -0.08982936       adf.R=1.517
      9      H    -0.74253847    -3.42414182    -0.95025653       adf.R=1.350
     10      H     0.34569467    -3.82679175     0.11149786       adf.R=1.350
 
Total System Charge            -2.00000
Bonding info available!
 
 *** GO1_GOStep2 ***

 SOLVATION
-------------------------------------------

  The Delley construction of COSMO surface surface is calculated

       Division Level for Surface Triangles (NDIV)                  3
       Final Division Level for Triangles (NFDIV)                   1
       Radius of the Solvent (RSOL)                           1.93000 angstr
  Dielectric Constant (EPSL)                                 78.39000

       COSMO equation is solved iteratively-               conjugate-gradient

       Maximun of Iterations for Charges (NCIX)                  1000
       Criterion for Charge convergence (CCNV)                1.0E-08

  COSMO charges included variationally in SCF

       COSMO included at every SCF cycle

  Geometry-dependent empirical factor                         0.00000

  C-Matrix calculated in cspmtx

  In cspmtx, C-Matrix calculated using fitted potential

-------------------------------------------



 -------------------------------------------
  COSMO surface
  Area             =          631.120
  Volume           =         1160.426
  Number of Points =         1422
 -------------------------------------------



 ======================
 RI Hartree-Fock Scheme
 ======================
  
 Fit Set Quality     : GOOD
 Threshold Quality   : GOOD
 Integration Quality : GOOD
 Fit Generation Method : AUTO
 Response Quality    : DEFAULT
 Is Range Separated  :  F
 
 RIHartreeFock Dependency: number of modified vectors:           7
 cosmo_calcen: 0.5 (esolb+esolc) (Hartrees) =   -0.292542

 Solvation energy (screening term,uncorrected) =   -183.572739 kcal/mol

 Solvation energy (dispersion and cavitation terms) =      1.180146 kcal/mol
 Solvation Energy Contributions (Hartrees)
          esola   esolb+esolc
     0.29254175   -0.58508350
 esol last cycle   -0.29254175
  
 Hartree-Fock exchange energy:   -622.363776499856     
 cosmo_calcen: 0.5 (esolb+esolc) (Hartrees) =   -0.292542

 Solvation energy (screening term,uncorrected) =   -183.572744 kcal/mol

 Solvation energy (dispersion and cavitation terms) =      1.180146 kcal/mol
 Solvation Energy Contributions (Hartrees)
          esola   esolb+esolc
     0.29254176   -0.58508351
 esol last cycle   -0.29254176

 Energy gradients wrt nuclear displacements
 ==========================================

     Atom      Cartesian (a.u./angstrom)
                 X         Y         Z
 ----------------------------------------
     1 Pa   -0.000439  0.000544 -0.000250
     2 Cl   -0.003180  0.007855 -0.002457
     3 Cl    0.005579 -0.005574  0.004848
     4 Cl    0.004405  0.005614  0.005375
     5 Cl   -0.005453 -0.002068 -0.006590
     6 Cl    0.007160  0.000575 -0.006831
     7 O    -0.008018 -0.001189  0.007323
     8 O     0.000045 -0.004305 -0.001523
     9 H     0.000013 -0.000871  0.000078
    10 H    -0.000114 -0.000581  0.000028
 ----------------------------------------
 Mulliken charges used for AMS results%charges...

 dE(predicted):    -0.49756E-03, dE(actual):    -0.77844E-03, Trust radius:    0.200000, all in a.u.
 
----------------------------------------------------------------------
Geometry Convergence after Step   2       (Hartree/Angstrom,Angstrom)
----------------------------------------------------------------------
current energy                               -2.81338661 Hartree
energy change                      -0.00077844     0.00001000    F
constrained gradient max            0.00793665     0.00010000    F
constrained gradient rms            0.00432231     0.00006667    F
gradient max                        0.00793665
gradient rms                        0.00432231
cart. step max                      0.01595904     0.00100000    F
cart. step rms                      0.00731633     0.00066667    F
 
 
--------
Geometry
--------
Formula: H2Cl5O2Pa
Atoms
  Index Symbol   x (angstrom)   y (angstrom)   z (angstrom)
      1     Pa    -0.00779575    -0.70855592     0.42072049       adf.R=2.200
      2     Cl    -0.90868184     1.76002402    -0.36541269       adf.R=1.725
      3     Cl     1.66547487    -2.40538570     1.84216356       adf.R=1.725
      4     Cl     1.41526749     1.00303808     2.00702316       adf.R=1.725
      5     Cl    -1.77784427    -1.24877113    -1.68035396       adf.R=1.725
      6     Cl     1.88312764    -0.57675817    -1.41065136       adf.R=1.725
      7      O    -1.33342480    -0.86233271     1.65091363       adf.R=1.517
      8      O    -0.36650677    -3.20389539    -0.08602760       adf.R=1.517
      9      H    -0.73706469    -3.41169964    -0.95057071       adf.R=1.350
     10      H     0.34991821    -3.81592136     0.10984133       adf.R=1.350
 
Total System Charge            -2.00000
Bonding info available!
 
 *** GO1_GOStep3 ***

 SOLVATION
-------------------------------------------

  The Delley construction of COSMO surface surface is calculated

       Division Level for Surface Triangles (NDIV)                  3
       Final Division Level for Triangles (NFDIV)                   1
       Radius of the Solvent (RSOL)                           1.93000 angstr
  Dielectric Constant (EPSL)                                 78.39000

       COSMO equation is solved iteratively-               conjugate-gradient

       Maximun of Iterations for Charges (NCIX)                  1000
       Criterion for Charge convergence (CCNV)                1.0E-08

  COSMO charges included variationally in SCF

       COSMO included at every SCF cycle

  Geometry-dependent empirical factor                         0.00000

  C-Matrix calculated in cspmtx

  In cspmtx, C-Matrix calculated using fitted potential

-------------------------------------------



 -------------------------------------------
  COSMO surface
  Area             =          627.693
  Volume           =         1154.281
  Number of Points =         1417
 -------------------------------------------



 ======================
 RI Hartree-Fock Scheme
 ======================
  
 Fit Set Quality     : GOOD
 Threshold Quality   : GOOD
 Integration Quality : GOOD
 Fit Generation Method : AUTO
 Response Quality    : DEFAULT
 Is Range Separated  :  F
 
 RIHartreeFock Dependency: number of modified vectors:           7
 cosmo_calcen: 0.5 (esolb+esolc) (Hartrees) =   -0.292838

 Solvation energy (screening term,uncorrected) =   -183.758412 kcal/mol

 Solvation energy (dispersion and cavitation terms) =      1.173738 kcal/mol
 Solvation Energy Contributions (Hartrees)
          esola   esolb+esolc
     0.29283764   -0.58567528
 esol last cycle   -0.29283764
  
 Hartree-Fock exchange energy:   -622.390208137529     
 cosmo_calcen: 0.5 (esolb+esolc) (Hartrees) =   -0.292838

 Solvation energy (screening term,uncorrected) =   -183.758412 kcal/mol

 Solvation energy (dispersion and cavitation terms) =      1.173738 kcal/mol
 Solvation Energy Contributions (Hartrees)
          esola   esolb+esolc
     0.29283764   -0.58567528
 esol last cycle   -0.29283764

 Energy gradients wrt nuclear displacements
 ==========================================

     Atom      Cartesian (a.u./angstrom)
                 X         Y         Z
 ----------------------------------------
     1 Pa   -0.013930 -0.000675  0.012939
     2 Cl   -0.001540  0.003647 -0.001367
     3 Cl    0.003037 -0.003018  0.002436
     4 Cl    0.002093  0.002810  0.002472
     5 Cl   -0.002770 -0.001102 -0.003669
     6 Cl    0.003189  0.000401 -0.003060
     7 O     0.009415  0.000971 -0.008887
     8 O     0.000955 -0.003511 -0.002112
     9 H     0.000873 -0.000245  0.001653
    10 H    -0.001322  0.000723 -0.000405
 ----------------------------------------
 Mulliken charges used for AMS results%charges...

 dE(predicted):    -0.41044E-03, dE(actual):    -0.48391E-03, Trust radius:    0.200000, all in a.u.
 
----------------------------------------------------------------------
Geometry Convergence after Step   3       (Hartree/Angstrom,Angstrom)
----------------------------------------------------------------------
current energy                               -2.81387052 Hartree
energy change                      -0.00048391     0.00001000    F
constrained gradient max            0.01386094     0.00010000    F
constrained gradient rms            0.00467601     0.00006667    F
gradient max                        0.01386094
gradient rms                        0.00467601
cart. step max                      0.00836534     0.00100000    F
cart. step rms                      0.00367247     0.00066667    F
 
 
--------
Geometry
--------
Formula: H2Cl5O2Pa
Atoms
  Index Symbol   x (angstrom)   y (angstrom)   z (angstrom)
      1     Pa    -0.00664245    -0.71079383     0.41969044       adf.R=2.200
      2     Cl    -0.90531743     1.75165868    -0.36476347       adf.R=1.725
      3     Cl     1.66162713    -2.40114033     1.84004243       adf.R=1.725
      4     Cl     1.41193744     0.99789248     2.00128676       adf.R=1.725
      5     Cl    -1.77409108    -1.24917600    -1.67444978       adf.R=1.725
      6     Cl     1.87897697    -0.58031949    -1.40692808       adf.R=1.725
      7      O    -1.33324137    -0.86274322     1.65110538       adf.R=1.517
      8      O    -0.36793844    -3.20124750    -0.08451625       adf.R=1.517
      9      H    -0.73513595    -3.40422641    -0.95194731       adf.R=1.350
     10      H     0.35229526    -3.81016229     0.10812574       adf.R=1.350
 
Total System Charge            -2.00000
Bonding info available!
 
 *** GO1_GOStep4 ***

 SOLVATION
-------------------------------------------

  The Delley construction of COSMO surface surface is calculated

       Division Level for Surface Triangles (NDIV)                  3
       Final Division Level for Triangles (NFDIV)                   1
       Radius of the Solvent (RSOL)                           1.93000 angstr
  Dielectric Constant (EPSL)                                 78.39000

       COSMO equation is solved iteratively-               conjugate-gradient

       Maximun of Iterations for Charges (NCIX)                  1000
       Criterion for Charge convergence (CCNV)                1.0E-08

  COSMO charges included variationally in SCF

       COSMO included at every SCF cycle

  Geometry-dependent empirical factor                         0.00000

  C-Matrix calculated in cspmtx

  In cspmtx, C-Matrix calculated using fitted potential

-------------------------------------------



 -------------------------------------------
  COSMO surface
  Area             =          624.882
  Volume           =         1150.022
  Number of Points =         1411
 -------------------------------------------



 ======================
 RI Hartree-Fock Scheme
 ======================
  
 Fit Set Quality     : GOOD
 Threshold Quality   : GOOD
 Integration Quality : GOOD
 Fit Generation Method : AUTO
 Response Quality    : DEFAULT
 Is Range Separated  :  F
 
 RIHartreeFock Dependency: number of modified vectors:           7
 cosmo_calcen: 0.5 (esolb+esolc) (Hartrees) =   -0.293181

 Solvation energy (screening term,uncorrected) =   -183.973599 kcal/mol

 Solvation energy (dispersion and cavitation terms) =      1.168481 kcal/mol
 Solvation Energy Contributions (Hartrees)
          esola   esolb+esolc
     0.29318056   -0.58636112
 esol last cycle   -0.29318056
  
 Hartree-Fock exchange energy:   -622.395388659780     
 cosmo_calcen: 0.5 (esolb+esolc) (Hartrees) =   -0.293181

 Solvation energy (screening term,uncorrected) =   -183.973603 kcal/mol

 Solvation energy (dispersion and cavitation terms) =      1.168481 kcal/mol
 Solvation Energy Contributions (Hartrees)
          esola   esolb+esolc
     0.29318057   -0.58636114
 esol last cycle   -0.29318057

 Energy gradients wrt nuclear displacements
 ==========================================

     Atom      Cartesian (a.u./angstrom)
                 X         Y         Z
 ----------------------------------------
     1 Pa   -0.011638 -0.000423  0.010969
     2 Cl   -0.000862  0.001821 -0.000771
     3 Cl    0.001893 -0.001743  0.001543
     4 Cl    0.000952  0.001492  0.001228
     5 Cl   -0.001550 -0.000811 -0.002170
     6 Cl    0.001348  0.000322 -0.001274
     7 O     0.009355  0.001006 -0.008824
     8 O     0.000749 -0.002149 -0.001676
     9 H     0.000745 -0.000181  0.001273
    10 H    -0.000992  0.000666 -0.000298
 ----------------------------------------
 Mulliken charges used for AMS results%charges...

 dE(predicted):    -0.10119E-03, dE(actual):    -0.11946E-03, Trust radius:    0.200000, all in a.u.
 
----------------------------------------------------------------------
Geometry Convergence after Step   4       (Hartree/Angstrom,Angstrom)
----------------------------------------------------------------------
current energy                               -2.81398997 Hartree
energy change                      -0.00011946     0.00001000    F
constrained gradient max            0.01156822     0.00010000    F
constrained gradient rms            0.00392934     0.00006667    F
gradient max                        0.01156822
gradient rms                        0.00392934
cart. step max                      0.01094627     0.00100000    F
cart. step rms                      0.00515570     0.00066667    F
 
 
--------
Geometry
--------
Formula: H2Cl5O2Pa
Atoms
  Index Symbol   x (angstrom)   y (angstrom)   z (angstrom)
      1     Pa    -0.00427507    -0.71365164     0.41653782       adf.R=2.200
      2     Cl    -0.90107859     1.74071240    -0.36347931       adf.R=1.725
      3     Cl     1.65569734    -2.39580349     1.83496650       adf.R=1.725
      4     Cl     1.40712269     0.99038440     1.99346769       adf.R=1.725
      5     Cl    -1.76914732    -1.24685501    -1.66735539       adf.R=1.725
      6     Cl     1.87479357    -0.58671573    -1.40373768       adf.R=1.725
      7      O    -1.33685058    -0.86436627     1.65384644       adf.R=1.517
      8      O    -0.36925441    -3.19785810    -0.08093185       adf.R=1.517
      9      H    -0.73174568    -3.39418120    -0.95267884       adf.R=1.350
     10      H     0.35720814    -3.80192328     0.10701049       adf.R=1.350
 
Total System Charge            -2.00000
Bonding info available!
 
 *** GO1_GOStep5 ***

 SOLVATION
-------------------------------------------

  The Delley construction of COSMO surface surface is calculated

       Division Level for Surface Triangles (NDIV)                  3
       Final Division Level for Triangles (NFDIV)                   1
       Radius of the Solvent (RSOL)                           1.93000 angstr
  Dielectric Constant (EPSL)                                 78.39000

       COSMO equation is solved iteratively-               conjugate-gradient

       Maximun of Iterations for Charges (NCIX)                  1000
       Criterion for Charge convergence (CCNV)                1.0E-08

  COSMO charges included variationally in SCF

       COSMO included at every SCF cycle

  Geometry-dependent empirical factor                         0.00000

  C-Matrix calculated in cspmtx

  In cspmtx, C-Matrix calculated using fitted potential

-------------------------------------------



 -------------------------------------------
  COSMO surface
  Area             =          623.175
  Volume           =         1147.292
  Number of Points =         1405
 -------------------------------------------



 ======================
 RI Hartree-Fock Scheme
 ======================
  
 Fit Set Quality     : GOOD
 Threshold Quality   : GOOD
 Integration Quality : GOOD
 Fit Generation Method : AUTO
 Response Quality    : DEFAULT
 Is Range Separated  :  F
 
 RIHartreeFock Dependency: number of modified vectors:           7
 cosmo_calcen: 0.5 (esolb+esolc) (Hartrees) =   -0.293830

 Solvation energy (screening term,uncorrected) =   -184.381091 kcal/mol

 Solvation energy (dispersion and cavitation terms) =      1.165289 kcal/mol
 Solvation Energy Contributions (Hartrees)
          esola   esolb+esolc
     0.29382994   -0.58765988
 esol last cycle   -0.29382994
  
 Hartree-Fock exchange energy:   -622.397860507988     
 cosmo_calcen: 0.5 (esolb+esolc) (Hartrees) =   -0.293830

 Solvation energy (screening term,uncorrected) =   -184.381097 kcal/mol

 Solvation energy (dispersion and cavitation terms) =      1.165289 kcal/mol
 Solvation Energy Contributions (Hartrees)
          esola   esolb+esolc
     0.29382995   -0.58765990
 esol last cycle   -0.29382995

 Energy gradients wrt nuclear displacements
 ==========================================

     Atom      Cartesian (a.u./angstrom)
                 X         Y         Z
 ----------------------------------------
     1 Pa   -0.001731  0.000445  0.001773
     2 Cl   -0.000133 -0.000506  0.000053
     3 Cl    0.000203 -0.000140  0.000248
     4 Cl   -0.000515 -0.000109 -0.000194
     5 Cl   -0.000197 -0.000178 -0.000310
     6 Cl   -0.000894  0.000180  0.000967
     7 O     0.002526  0.000288 -0.002475
     8 O     0.000391 -0.000019 -0.000289
     9 H     0.000352 -0.000090  0.000220
    10 H    -0.000002  0.000128  0.000006
 ----------------------------------------
 Mulliken charges used for AMS results%charges...

 dE(predicted):    -0.12458E-03, dE(actual):    -0.10201E-03, Trust radius:    0.200000, all in a.u.
 
----------------------------------------------------------------------
Geometry Convergence after Step   5       (Hartree/Angstrom,Angstrom)
----------------------------------------------------------------------
current energy                               -2.81409198 Hartree
energy change                      -0.00010201     0.00001000    F
constrained gradient max            0.00263534     0.00010000    F
constrained gradient rms            0.00084745     0.00006667    F
gradient max                        0.00263534
gradient rms                        0.00084745
cart. step max                      0.00141538     0.00100000    F
cart. step rms                      0.00063309     0.00066667    T
 
 
--------
Geometry
--------
Formula: H2Cl5O2Pa
Atoms
  Index Symbol   x (angstrom)   y (angstrom)   z (angstrom)
      1     Pa    -0.00406982    -0.71361013     0.41640832       adf.R=2.200
      2     Cl    -0.90120114     1.74100484    -0.36311402       adf.R=1.725
      3     Cl     1.65639437    -2.39467404     1.83482964       adf.R=1.725
      4     Cl     1.40725568     0.99047058     1.99363551       adf.R=1.725
      5     Cl    -1.76788112    -1.24748990    -1.66774222       adf.R=1.725
      6     Cl     1.87542302    -0.58763822    -1.40447917       adf.R=1.725
      7      O    -1.33826597    -0.86531630     1.65499841       adf.R=1.517
      8      O    -0.36980537    -3.19776021    -0.08071634       adf.R=1.517
      9      H    -0.73253759    -3.39358909    -0.95263971       adf.R=1.350
     10      H     0.35715801    -3.80165546     0.10646544       adf.R=1.350
 
Total System Charge            -2.00000
Bonding info available!
 
 *** GO1_GOStep6 ***

 SOLVATION
-------------------------------------------

  The Delley construction of COSMO surface surface is calculated

       Division Level for Surface Triangles (NDIV)                  3
       Final Division Level for Triangles (NFDIV)                   1
       Radius of the Solvent (RSOL)                           1.93000 angstr
  Dielectric Constant (EPSL)                                 78.39000

       COSMO equation is solved iteratively-               conjugate-gradient

       Maximun of Iterations for Charges (NCIX)                  1000
       Criterion for Charge convergence (CCNV)                1.0E-08

  COSMO charges included variationally in SCF

       COSMO included at every SCF cycle

  Geometry-dependent empirical factor                         0.00000

  C-Matrix calculated in cspmtx

  In cspmtx, C-Matrix calculated using fitted potential

-------------------------------------------



 -------------------------------------------
  COSMO surface
  Area             =          623.973
  Volume           =         1148.936
  Number of Points =         1408
 -------------------------------------------



 ======================
 RI Hartree-Fock Scheme
 ======================
  
 Fit Set Quality     : GOOD
 Threshold Quality   : GOOD
 Integration Quality : GOOD
 Fit Generation Method : AUTO
 Response Quality    : DEFAULT
 Is Range Separated  :  F
 
 RIHartreeFock Dependency: number of modified vectors:           7
 cosmo_calcen: 0.5 (esolb+esolc) (Hartrees) =   -0.293865

 Solvation energy (screening term,uncorrected) =   -184.403243 kcal/mol

 Solvation energy (dispersion and cavitation terms) =      1.166781 kcal/mol
 Solvation Energy Contributions (Hartrees)
          esola   esolb+esolc
     0.29386524   -0.58773049
 esol last cycle   -0.29386524
  
 Hartree-Fock exchange energy:   -622.395731570180     
 cosmo_calcen: 0.5 (esolb+esolc) (Hartrees) =   -0.293865

 Solvation energy (screening term,uncorrected) =   -184.403250 kcal/mol

 Solvation energy (dispersion and cavitation terms) =      1.166781 kcal/mol
 Solvation Energy Contributions (Hartrees)
          esola   esolb+esolc
     0.29386525   -0.58773051
 esol last cycle   -0.29386525

 Energy gradients wrt nuclear displacements
 ==========================================

     Atom      Cartesian (a.u./angstrom)
                 X         Y         Z
 ----------------------------------------
     1 Pa    0.000295  0.000588 -0.000146
     2 Cl   -0.000191 -0.000321  0.000033
     3 Cl    0.000298 -0.000129  0.000338
     4 Cl   -0.000428 -0.000043 -0.000079
     5 Cl   -0.000203 -0.000283 -0.000323
     6 Cl   -0.000695  0.000163  0.000766
     7 O     0.000305  0.000013 -0.000448
     8 O     0.000208  0.000142 -0.000197
     9 H     0.000237 -0.000146 -0.000002
    10 H     0.000174  0.000015  0.000059
 ----------------------------------------
 Mulliken charges used for AMS results%charges...

 dE(predicted):    -0.47872E-05, dE(actual):    -0.97900E-05, Trust radius:    0.200000, all in a.u.
 
----------------------------------------------------------------------
Geometry Convergence after Step   6       (Hartree/Angstrom,Angstrom)
----------------------------------------------------------------------
current energy                               -2.81410177 Hartree
energy change                      -0.00000979     0.00001000    T
constrained gradient max            0.00069462     0.00010000    F
constrained gradient rms            0.00028152     0.00006667    F
gradient max                        0.00069462
gradient rms                        0.00028152
cart. step max                      0.00092039     0.00100000    T
cart. step rms                      0.00049093     0.00066667    T
 
 
--------
Geometry
--------
Formula: H2Cl5O2Pa
Atoms
  Index Symbol   x (angstrom)   y (angstrom)   z (angstrom)
      1     Pa    -0.00430355    -0.71356720     0.41640856       adf.R=2.200
      2     Cl    -0.90147866     1.74145201    -0.36286459       adf.R=1.725
      3     Cl     1.65646044    -2.39446544     1.83398249       adf.R=1.725
      4     Cl     1.40725509     0.99063118     1.99382300       adf.R=1.725
      5     Cl    -1.76700794    -1.24679187    -1.66846315       adf.R=1.725
      6     Cl     1.87581155    -0.58836692    -1.40522264       adf.R=1.725
      7      O    -1.33902730    -0.86623669     1.65541347       adf.R=1.517
      8      O    -0.36997686    -3.19797799    -0.07996091       adf.R=1.517
      9      H    -0.73281757    -3.39346549    -0.95195306       adf.R=1.350
     10      H     0.35755487    -3.80146952     0.10648268       adf.R=1.350
 
Total System Charge            -2.00000
Bonding info available!
 
 *** GO1_GOStep7 ***

 SOLVATION
-------------------------------------------

  The Delley construction of COSMO surface surface is calculated

       Division Level for Surface Triangles (NDIV)                  3
       Final Division Level for Triangles (NFDIV)                   1
       Radius of the Solvent (RSOL)                           1.93000 angstr
  Dielectric Constant (EPSL)                                 78.39000

       COSMO equation is solved iteratively-               conjugate-gradient

       Maximun of Iterations for Charges (NCIX)                  1000
       Criterion for Charge convergence (CCNV)                1.0E-08

  COSMO charges included variationally in SCF

       COSMO included at every SCF cycle

  Geometry-dependent empirical factor                         0.00000

  C-Matrix calculated in cspmtx

  In cspmtx, C-Matrix calculated using fitted potential

-------------------------------------------



 -------------------------------------------
  COSMO surface
  Area             =          624.512
  Volume           =         1149.983
  Number of Points =         1409
 -------------------------------------------



 ======================
 RI Hartree-Fock Scheme
 ======================
  
 Fit Set Quality     : GOOD
 Threshold Quality   : GOOD
 Integration Quality : GOOD
 Fit Generation Method : AUTO
 Response Quality    : DEFAULT
 Is Range Separated  :  F
 
 RIHartreeFock Dependency: number of modified vectors:           7
 cosmo_calcen: 0.5 (esolb+esolc) (Hartrees) =   -0.293863

 Solvation energy (screening term,uncorrected) =   -184.402056 kcal/mol

 Solvation energy (dispersion and cavitation terms) =      1.167788 kcal/mol
 Solvation Energy Contributions (Hartrees)
          esola   esolb+esolc
     0.29386335   -0.58772670
 esol last cycle   -0.29386335
  
 Hartree-Fock exchange energy:   -622.394793942950     
 cosmo_calcen: 0.5 (esolb+esolc) (Hartrees) =   -0.293863

 Solvation energy (screening term,uncorrected) =   -184.402065 kcal/mol

 Solvation energy (dispersion and cavitation terms) =      1.167788 kcal/mol
 Solvation Energy Contributions (Hartrees)
          esola   esolb+esolc
     0.29386336   -0.58772673
 esol last cycle   -0.29386336

 Energy gradients wrt nuclear displacements
 ==========================================

     Atom      Cartesian (a.u./angstrom)
                 X         Y         Z
 ----------------------------------------
     1 Pa    0.000857  0.000626 -0.000671
     2 Cl   -0.000235 -0.000214 -0.000014
     3 Cl    0.000270 -0.000160  0.000308
     4 Cl   -0.000360  0.000025 -0.000032
     5 Cl   -0.000237 -0.000236 -0.000386
     6 Cl   -0.000496  0.000148  0.000563
     7 O    -0.000484 -0.000139  0.000283
     8 O     0.000251  0.000120 -0.000082
     9 H     0.000217 -0.000139 -0.000037
    10 H     0.000217 -0.000029  0.000067
 ----------------------------------------
 Mulliken charges used for AMS results%charges...

 dE(predicted):    -0.11004E-05, dE(actual):    -0.87342E-05, Trust radius:    0.200000, all in a.u.
 
----------------------------------------------------------------------
Geometry Convergence after Step   7       (Hartree/Angstrom,Angstrom)
----------------------------------------------------------------------
current energy                               -2.81411050 Hartree
energy change                      -0.00000873     0.00001000    T
constrained gradient max            0.00092516     0.00010000    F
constrained gradient rms            0.00031251     0.00006667    F
gradient max                        0.00092516
gradient rms                        0.00031251
cart. step max                      0.00157263     0.00100000    F
cart. step rms                      0.00062135     0.00066667    T
 
 
--------
Geometry
--------
Formula: H2Cl5O2Pa
Atoms
  Index Symbol   x (angstrom)   y (angstrom)   z (angstrom)
      1     Pa    -0.00453856    -0.71370509     0.41656888       adf.R=2.200
      2     Cl    -0.90170812     1.74173130    -0.36247077       adf.R=1.725
      3     Cl     1.65695668    -2.39349892     1.83320302       adf.R=1.725
      4     Cl     1.40697041     0.99086239     1.99417889       adf.R=1.725
      5     Cl    -1.76543530    -1.24684069    -1.66897756       adf.R=1.725
      6     Cl     1.87643498    -0.58926070    -1.40599583       adf.R=1.725
      7      O    -1.33946389    -0.86731602     1.65570489       adf.R=1.517
      8      O    -0.37072950    -3.19823852    -0.07915334       adf.R=1.517
      9      H    -0.73365604    -3.39283767    -0.95133699       adf.R=1.350
     10      H     0.35763943    -3.80115399     0.10592467       adf.R=1.350
 
Total System Charge            -2.00000
Bonding info available!
 
 *** GO1_GOStep8 ***

 SOLVATION
-------------------------------------------

  The Delley construction of COSMO surface surface is calculated

       Division Level for Surface Triangles (NDIV)                  3
       Final Division Level for Triangles (NFDIV)                   1
       Radius of the Solvent (RSOL)                           1.93000 angstr
  Dielectric Constant (EPSL)                                 78.39000

       COSMO equation is solved iteratively-               conjugate-gradient

       Maximun of Iterations for Charges (NCIX)                  1000
       Criterion for Charge convergence (CCNV)                1.0E-08

  COSMO charges included variationally in SCF

       COSMO included at every SCF cycle

  Geometry-dependent empirical factor                         0.00000

  C-Matrix calculated in cspmtx

  In cspmtx, C-Matrix calculated using fitted potential

-------------------------------------------



 -------------------------------------------
  COSMO surface
  Area             =          624.527
  Volume           =         1150.039
  Number of Points =         1409
 -------------------------------------------



 ======================
 RI Hartree-Fock Scheme
 ======================
  
 Fit Set Quality     : GOOD
 Threshold Quality   : GOOD
 Integration Quality : GOOD
 Fit Generation Method : AUTO
 Response Quality    : DEFAULT
 Is Range Separated  :  F
 
 RIHartreeFock Dependency: number of modified vectors:           7
 cosmo_calcen: 0.5 (esolb+esolc) (Hartrees) =   -0.293840

 Solvation energy (screening term,uncorrected) =   -184.387289 kcal/mol

 Solvation energy (dispersion and cavitation terms) =      1.167816 kcal/mol
 Solvation Energy Contributions (Hartrees)
          esola   esolb+esolc
     0.29383982   -0.58767964
 esol last cycle   -0.29383982
  
 Hartree-Fock exchange energy:   -622.394330040584     
 cosmo_calcen: 0.5 (esolb+esolc) (Hartrees) =   -0.293840

 Solvation energy (screening term,uncorrected) =   -184.387298 kcal/mol

 Solvation energy (dispersion and cavitation terms) =      1.167816 kcal/mol
 Solvation Energy Contributions (Hartrees)
          esola   esolb+esolc
     0.29383983   -0.58767967
 esol last cycle   -0.29383983

 Energy gradients wrt nuclear displacements
 ==========================================

     Atom      Cartesian (a.u./angstrom)
                 X         Y         Z
 ----------------------------------------
     1 Pa    0.000910  0.000554 -0.000798
     2 Cl   -0.000250 -0.000128 -0.000036
     3 Cl    0.000244 -0.000100  0.000283
     4 Cl   -0.000308  0.000059  0.000018
     5 Cl   -0.000168 -0.000251 -0.000350
     6 Cl   -0.000274  0.000131  0.000336
     7 O    -0.000814 -0.000235  0.000604
     8 O     0.000222  0.000135 -0.000065
     9 H     0.000207 -0.000140 -0.000049
    10 H     0.000231 -0.000025  0.000057
 ----------------------------------------
 Mulliken charges used for AMS results%charges...

 dE(predicted):    -0.88617E-06, dE(actual):    -0.29417E-05, Trust radius:    0.200000, all in a.u.
 
----------------------------------------------------------------------
Geometry Convergence after Step   8       (Hartree/Angstrom,Angstrom)
----------------------------------------------------------------------
current energy                               -2.81411345 Hartree
energy change                      -0.00000294     0.00001000    T
constrained gradient max            0.00097883     0.00010000    F
constrained gradient rms            0.00033380     0.00006667    F
gradient max                        0.00097883
gradient rms                        0.00033380
cart. step max                      0.00209856     0.00100000    F
cart. step rms                      0.00084976     0.00066667    F
 
 
--------
Geometry
--------
Formula: H2Cl5O2Pa
Atoms
  Index Symbol   x (angstrom)   y (angstrom)   z (angstrom)
      1     Pa    -0.00488141    -0.71413242     0.41676649       adf.R=2.200
      2     Cl    -0.90191891     1.74181463    -0.36194834       adf.R=1.725
      3     Cl     1.65740030    -2.39237705     1.83172565       adf.R=1.725
      4     Cl     1.40621019     0.99116403     1.99458552       adf.R=1.725
      5     Cl    -1.76333674    -1.24648654    -1.66941309       adf.R=1.725
      6     Cl     1.87736028    -0.59019679    -1.40697823       adf.R=1.725
      7      O    -1.33975305    -0.86853072     1.65568822       adf.R=1.517
      8      O    -0.37185317    -3.19886579    -0.07769416       adf.R=1.517
      9      H    -0.73467543    -3.39189943    -0.95029346       adf.R=1.350
     10      H     0.35791803    -3.80074784     0.10520728       adf.R=1.350
 
Total System Charge            -2.00000
Bonding info available!
 
 *** GO1_GOStep9 ***

 SOLVATION
-------------------------------------------

  The Delley construction of COSMO surface surface is calculated

       Division Level for Surface Triangles (NDIV)                  3
       Final Division Level for Triangles (NFDIV)                   1
       Radius of the Solvent (RSOL)                           1.93000 angstr
  Dielectric Constant (EPSL)                                 78.39000

       COSMO equation is solved iteratively-               conjugate-gradient

       Maximun of Iterations for Charges (NCIX)                  1000
       Criterion for Charge convergence (CCNV)                1.0E-08

  COSMO charges included variationally in SCF

       COSMO included at every SCF cycle

  Geometry-dependent empirical factor                         0.00000

  C-Matrix calculated in cspmtx

  In cspmtx, C-Matrix calculated using fitted potential

-------------------------------------------



 -------------------------------------------
  COSMO surface
  Area             =          624.178
  Volume           =         1149.423
  Number of Points =         1408
 -------------------------------------------



 ======================
 RI Hartree-Fock Scheme
 ======================
  
 Fit Set Quality     : GOOD
 Threshold Quality   : GOOD
 Integration Quality : GOOD
 Fit Generation Method : AUTO
 Response Quality    : DEFAULT
 Is Range Separated  :  F
 
 RIHartreeFock Dependency: number of modified vectors:           7
 cosmo_calcen: 0.5 (esolb+esolc) (Hartrees) =   -0.293811

 Solvation energy (screening term,uncorrected) =   -184.369376 kcal/mol

 Solvation energy (dispersion and cavitation terms) =      1.167164 kcal/mol
 Solvation Energy Contributions (Hartrees)
          esola   esolb+esolc
     0.29381127   -0.58762254
 esol last cycle   -0.29381127
  
 Hartree-Fock exchange energy:   -622.394335980233     
 cosmo_calcen: 0.5 (esolb+esolc) (Hartrees) =   -0.293811

 Solvation energy (screening term,uncorrected) =   -184.369385 kcal/mol

 Solvation energy (dispersion and cavitation terms) =      1.167164 kcal/mol
 Solvation Energy Contributions (Hartrees)
          esola   esolb+esolc
     0.29381129   -0.58762257
 esol last cycle   -0.29381129

 Energy gradients wrt nuclear displacements
 ==========================================

     Atom      Cartesian (a.u./angstrom)
                 X         Y         Z
 ----------------------------------------
     1 Pa    0.000437  0.000339 -0.000463
     2 Cl   -0.000244 -0.000094 -0.000046
     3 Cl    0.000124  0.000006  0.000179
     4 Cl   -0.000285  0.000083  0.000035
     5 Cl   -0.000045 -0.000202 -0.000252
     6 Cl   -0.000001  0.000119  0.000060
     7 O    -0.000677 -0.000271  0.000489
     8 O     0.000236  0.000141  0.000006
     9 H     0.000219 -0.000114 -0.000039
    10 H     0.000235 -0.000007  0.000032
 ----------------------------------------
 Mulliken charges used for AMS results%charges...

 dE(predicted):    -0.10692E-05, dE(actual):    -0.21840E-05, Trust radius:    0.200000, all in a.u.
 
----------------------------------------------------------------------
Geometry Convergence after Step   9       (Hartree/Angstrom,Angstrom)
----------------------------------------------------------------------
current energy                               -2.81411563 Hartree
energy change                      -0.00000218     0.00001000    T
constrained gradient max            0.00056747     0.00010000    F
constrained gradient rms            0.00021311     0.00006667    F
gradient max                        0.00056747
gradient rms                        0.00021311
cart. step max                      0.00102193     0.00100000    F
cart. step rms                      0.00046184     0.00066667    T
 
 
--------
Geometry
--------
Formula: H2Cl5O2Pa
Atoms
  Index Symbol   x (angstrom)   y (angstrom)   z (angstrom)
      1     Pa    -0.00488613    -0.71455516     0.41685090       adf.R=2.200
      2     Cl    -0.90192186     1.74155062    -0.36179441       adf.R=1.725
      3     Cl     1.65785585    -2.39167874     1.83100724       adf.R=1.725
      4     Cl     1.40557234     0.99134970     1.99484305       adf.R=1.725
      5     Cl    -1.76231482    -1.24660056    -1.66925190       adf.R=1.725
      6     Cl     1.87803585    -0.59012208    -1.40722046       adf.R=1.725
      7      O    -1.33958222    -0.86873574     1.65544245       adf.R=1.517
      8      O    -0.37269120    -3.19936756    -0.07700652       adf.R=1.517
      9      H    -0.73536965    -3.39133970    -0.94990884       adf.R=1.350
     10      H     0.35777190    -3.80075869     0.10468434       adf.R=1.350
 
Total System Charge            -2.00000
Bonding info available!
 
 *** GO1_GOStep10 ***

 SOLVATION
-------------------------------------------

  The Delley construction of COSMO surface surface is calculated

       Division Level for Surface Triangles (NDIV)                  3
       Final Division Level for Triangles (NFDIV)                   1
       Radius of the Solvent (RSOL)                           1.93000 angstr
  Dielectric Constant (EPSL)                                 78.39000

       COSMO equation is solved iteratively-               conjugate-gradient

       Maximun of Iterations for Charges (NCIX)                  1000
       Criterion for Charge convergence (CCNV)                1.0E-08

  COSMO charges included variationally in SCF

       COSMO included at every SCF cycle

  Geometry-dependent empirical factor                         0.00000

  C-Matrix calculated in cspmtx

  In cspmtx, C-Matrix calculated using fitted potential

-------------------------------------------



 -------------------------------------------
  COSMO surface
  Area             =          624.365
  Volume           =         1150.026
  Number of Points =         1408
 -------------------------------------------



 ======================
 RI Hartree-Fock Scheme
 ======================
  
 Fit Set Quality     : GOOD
 Threshold Quality   : GOOD
 Integration Quality : GOOD
 Fit Generation Method : AUTO
 Response Quality    : DEFAULT
 Is Range Separated  :  F
 
 RIHartreeFock Dependency: number of modified vectors:           7
 cosmo_calcen: 0.5 (esolb+esolc) (Hartrees) =   -0.293814

 Solvation energy (screening term,uncorrected) =   -184.371269 kcal/mol

 Solvation energy (dispersion and cavitation terms) =      1.167515 kcal/mol
 Solvation Energy Contributions (Hartrees)
          esola   esolb+esolc
     0.29381429   -0.58762858
 esol last cycle   -0.29381429
  
 Hartree-Fock exchange energy:   -622.394703629655     
 cosmo_calcen: 0.5 (esolb+esolc) (Hartrees) =   -0.293814

 Solvation energy (screening term,uncorrected) =   -184.371278 kcal/mol

 Solvation energy (dispersion and cavitation terms) =      1.167515 kcal/mol
 Solvation Energy Contributions (Hartrees)
          esola   esolb+esolc
     0.29381430   -0.58762861
 esol last cycle   -0.29381430

 Energy gradients wrt nuclear displacements
 ==========================================

     Atom      Cartesian (a.u./angstrom)
                 X         Y         Z
 ----------------------------------------
     1 Pa   -0.000076  0.000138 -0.000022
     2 Cl   -0.000227 -0.000118 -0.000033
     3 Cl    0.000064  0.000102  0.000121
     4 Cl   -0.000303  0.000074  0.000019
     5 Cl    0.000050 -0.000185 -0.000145
     6 Cl    0.000104  0.000129 -0.000038
     7 O    -0.000280 -0.000210  0.000114
     8 O     0.000215  0.000131 -0.000008
     9 H     0.000229 -0.000080 -0.000030
    10 H     0.000224  0.000018  0.000022
 ----------------------------------------
 Mulliken charges used for AMS results%charges...
 
----------------------------------------------------------------------
Geometry Convergence after Step  10       (Hartree/Angstrom,Angstrom)
----------------------------------------------------------------------
current energy                               -2.81411548 Hartree
energy change                       0.00000015     0.00001000    T
constrained gradient max            0.00017498     0.00010000    F
constrained gradient rms            0.00007345     0.00006667    F
gradient max                        0.00017498
gradient rms                        0.00007345
cart. step max                      0.00063072     0.00100000    T
cart. step rms                      0.00023142     0.00066667    T
 
 
--------
Geometry
--------
Formula: H2Cl5O2Pa
Atoms
  Index Symbol   x (angstrom)   y (angstrom)   z (angstrom)
      1     Pa    -0.00473680    -0.71477364     0.41675981       adf.R=2.200
      2     Cl    -0.90185281     1.74134643    -0.36189078       adf.R=1.725
      3     Cl     1.65800865    -2.39167346     1.83067908       adf.R=1.725
      4     Cl     1.40523834     0.99140536     1.99499168       adf.R=1.725
      5     Cl    -1.76225336    -1.24659031    -1.66901516       adf.R=1.725
      6     Cl     1.87835975    -0.58949136    -1.40710718       adf.R=1.725
      7      O    -1.33935228    -0.86838963     1.65518526       adf.R=1.517
      8      O    -0.37298068    -3.19970494    -0.07678981       adf.R=1.517
      9      H    -0.73559336    -3.39140000    -0.94978185       adf.R=1.350
     10      H     0.35763263    -3.80098636     0.10461482       adf.R=1.350
 
Total System Charge            -2.00000
Bonding info available!
 
 *** GO1_GOStep11 ***

 SOLVATION
-------------------------------------------

  The Delley construction of COSMO surface surface is calculated

       Division Level for Surface Triangles (NDIV)                  3
       Final Division Level for Triangles (NFDIV)                   1
       Radius of the Solvent (RSOL)                           1.93000 angstr
  Dielectric Constant (EPSL)                                 78.39000

       COSMO equation is solved iteratively-               conjugate-gradient

       Maximun of Iterations for Charges (NCIX)                  1000
       Criterion for Charge convergence (CCNV)                1.0E-08

  COSMO charges included variationally in SCF

       COSMO included at every SCF cycle

  Geometry-dependent empirical factor                         0.00000

  C-Matrix calculated in cspmtx

  In cspmtx, C-Matrix calculated using fitted potential

-------------------------------------------



 -------------------------------------------
  COSMO surface
  Area             =          624.348
  Volume           =         1149.988
  Number of Points =         1408
 -------------------------------------------



 ======================
 RI Hartree-Fock Scheme
 ======================
  
 Fit Set Quality     : GOOD
 Threshold Quality   : GOOD
 Integration Quality : GOOD
 Fit Generation Method : AUTO
 Response Quality    : DEFAULT
 Is Range Separated  :  F
 
 RIHartreeFock Dependency: number of modified vectors:           7
 cosmo_calcen: 0.5 (esolb+esolc) (Hartrees) =   -0.293829

 Solvation energy (screening term,uncorrected) =   -184.380406 kcal/mol

 Solvation energy (dispersion and cavitation terms) =      1.167482 kcal/mol
 Solvation Energy Contributions (Hartrees)
          esola   esolb+esolc
     0.29382885   -0.58765770
 esol last cycle   -0.29382885
  
 Hartree-Fock exchange energy:   -622.394942447357     
 cosmo_calcen: 0.5 (esolb+esolc) (Hartrees) =   -0.293829

 Solvation energy (screening term,uncorrected) =   -184.380415 kcal/mol

 Solvation energy (dispersion and cavitation terms) =      1.167482 kcal/mol
 Solvation Energy Contributions (Hartrees)
          esola   esolb+esolc
     0.29382886   -0.58765773
 esol last cycle   -0.29382886

 Energy gradients wrt nuclear displacements
 ==========================================

     Atom      Cartesian (a.u./angstrom)
                 X         Y         Z
 ----------------------------------------
     1 Pa   -0.000281  0.000031  0.000168
     2 Cl   -0.000224 -0.000146 -0.000023
     3 Cl    0.000039  0.000128  0.000096
     4 Cl   -0.000320  0.000075  0.000008
     5 Cl    0.000066 -0.000160 -0.000105
     6 Cl    0.000103  0.000147 -0.000026
     7 O    -0.000054 -0.000146 -0.000105
     8 O     0.000223  0.000108 -0.000003
     9 H     0.000233 -0.000070 -0.000029
    10 H     0.000214  0.000034  0.000019
 ----------------------------------------
 Mulliken charges used for AMS results%charges...

 dE(predicted):    -0.11685E-06, dE(actual):     0.15899E-05, Trust radius:    0.020000, all in a.u.
 
----------------------------------------------------------------------
Geometry Convergence after Step  11       (Hartree/Angstrom,Angstrom)
----------------------------------------------------------------------
current energy                               -2.81411389 Hartree
energy change                       0.00000159     0.00001000    T
constrained gradient max            0.00021300     0.00010000    F
constrained gradient rms            0.00006827     0.00006667    F
gradient max                        0.00021300
gradient rms                        0.00006827
cart. step max                      0.00081810     0.00100000    T
cart. step rms                      0.00025503     0.00066667    T
 
 
--------
Geometry
--------
Formula: H2Cl5O2Pa
Atoms
  Index Symbol   x (angstrom)   y (angstrom)   z (angstrom)
      1     Pa    -0.00450749    -0.71491514     0.41661978       adf.R=2.200
      2     Cl    -0.90178016     1.74123206    -0.36204364       adf.R=1.725
      3     Cl     1.65822942    -2.39171994     1.83040386       adf.R=1.725
      4     Cl     1.40498244     0.99147377     1.99521707       adf.R=1.725
      5     Cl    -1.76223790    -1.24673282    -1.66882337       adf.R=1.725
      6     Cl     1.87864117    -0.58867326    -1.40693003       adf.R=1.725
      7      O    -1.33913307    -0.86798480     1.65497627       adf.R=1.517
      8      O    -0.37324522    -3.20002437    -0.07667701       adf.R=1.517
      9      H    -0.73586724    -3.39159285    -0.94969240       adf.R=1.350
     10      H     0.35738813    -3.80132055     0.10459533       adf.R=1.350
 
Total System Charge            -2.00000
Bonding info available!
 
 *** GO1_GOStep12 ***

 SOLVATION
-------------------------------------------

  The Delley construction of COSMO surface surface is calculated

       Division Level for Surface Triangles (NDIV)                  3
       Final Division Level for Triangles (NFDIV)                   1
       Radius of the Solvent (RSOL)                           1.93000 angstr
  Dielectric Constant (EPSL)                                 78.39000

       COSMO equation is solved iteratively-               conjugate-gradient

       Maximun of Iterations for Charges (NCIX)                  1000
       Criterion for Charge convergence (CCNV)                1.0E-08

  COSMO charges included variationally in SCF

       COSMO included at every SCF cycle

  Geometry-dependent empirical factor                         0.00000

  C-Matrix calculated in cspmtx

  In cspmtx, C-Matrix calculated using fitted potential

-------------------------------------------



 -------------------------------------------
  COSMO surface
  Area             =          624.338
  Volume           =         1149.961
  Number of Points =         1408
 -------------------------------------------



 ======================
 RI Hartree-Fock Scheme
 ======================
  
 Fit Set Quality     : GOOD
 Threshold Quality   : GOOD
 Integration Quality : GOOD
 Fit Generation Method : AUTO
 Response Quality    : DEFAULT
 Is Range Separated  :  F
 
 RIHartreeFock Dependency: number of modified vectors:           7
 cosmo_calcen: 0.5 (esolb+esolc) (Hartrees) =   -0.293846

 Solvation energy (screening term,uncorrected) =   -184.391019 kcal/mol

 Solvation energy (dispersion and cavitation terms) =      1.167464 kcal/mol
 Solvation Energy Contributions (Hartrees)
          esola   esolb+esolc
     0.29384576   -0.58769153
 esol last cycle   -0.29384576
  
 Hartree-Fock exchange energy:   -622.395034751293     
 cosmo_calcen: 0.5 (esolb+esolc) (Hartrees) =   -0.293846

 Solvation energy (screening term,uncorrected) =   -184.391029 kcal/mol

 Solvation energy (dispersion and cavitation terms) =      1.167464 kcal/mol
 Solvation Energy Contributions (Hartrees)
          esola   esolb+esolc
     0.29384578   -0.58769156
 esol last cycle   -0.29384578

 Energy gradients wrt nuclear displacements
 ==========================================

     Atom      Cartesian (a.u./angstrom)
                 X         Y         Z
 ----------------------------------------
     1 Pa   -0.000314 -0.000040  0.000202
     2 Cl   -0.000228 -0.000152 -0.000018
     3 Cl    0.000033  0.000138  0.000091
     4 Cl   -0.000327  0.000084  0.000011
     5 Cl    0.000069 -0.000155 -0.000078
     6 Cl    0.000084  0.000165  0.000004
     7 O     0.000025 -0.000100 -0.000187
     8 O     0.000208  0.000087 -0.000016
     9 H     0.000236 -0.000066 -0.000029
    10 H     0.000215  0.000038  0.000020
 ----------------------------------------
 Mulliken charges used for AMS results%charges...

 dE(predicted):    -0.67662E-07, dE(actual):     0.19400E-05, Trust radius:    0.020000, all in a.u.
 
----------------------------------------------------------------------
Geometry Convergence after Step  12       (Hartree/Angstrom,Angstrom)
----------------------------------------------------------------------
current energy                               -2.81411195 Hartree
energy change                       0.00000194     0.00001000    T
constrained gradient max            0.00024536     0.00010000    F
constrained gradient rms            0.00007721     0.00006667    F
gradient max                        0.00024536
gradient rms                        0.00007721
cart. step max                      0.00084177     0.00100000    T
cart. step rms                      0.00027437     0.00066667    T
 
 
--------
Geometry
--------
Formula: H2Cl5O2Pa
Atoms
  Index Symbol   x (angstrom)   y (angstrom)   z (angstrom)
      1     Pa    -0.00427562    -0.71498532     0.41645425       adf.R=2.200
      2     Cl    -0.90173977     1.74124528    -0.36220707       adf.R=1.725
      3     Cl     1.65853666    -2.39175517     1.82995295       adf.R=1.725
      4     Cl     1.40475389     0.99155060     1.99555247       adf.R=1.725
      5     Cl    -1.76206695    -1.24682686    -1.66881419       adf.R=1.725
      6     Cl     1.87887483    -0.58783149    -1.40677884       adf.R=1.725
      7      O    -1.33897370    -0.86770509     1.65479858       adf.R=1.517
      8      O    -0.37353070    -3.20037432    -0.07648157       adf.R=1.517
      9      H    -0.73622446    -3.39187606    -0.94948302       adf.R=1.350
     10      H     0.35711590    -3.80169948     0.10465230       adf.R=1.350
 
Total System Charge            -2.00000
Bonding info available!
 
 *** GO1_GOStep13 ***

 SOLVATION
-------------------------------------------

  The Delley construction of COSMO surface surface is calculated

       Division Level for Surface Triangles (NDIV)                  3
       Final Division Level for Triangles (NFDIV)                   1
       Radius of the Solvent (RSOL)                           1.93000 angstr
  Dielectric Constant (EPSL)                                 78.39000

       COSMO equation is solved iteratively-               conjugate-gradient

       Maximun of Iterations for Charges (NCIX)                  1000
       Criterion for Charge convergence (CCNV)                1.0E-08

  COSMO charges included variationally in SCF

       COSMO included at every SCF cycle

  Geometry-dependent empirical factor                         0.00000

  C-Matrix calculated in cspmtx

  In cspmtx, C-Matrix calculated using fitted potential

-------------------------------------------



 -------------------------------------------
  COSMO surface
  Area             =          624.334
  Volume           =         1149.944
  Number of Points =         1408
 -------------------------------------------



 ======================
 RI Hartree-Fock Scheme
 ======================
  
 Fit Set Quality     : GOOD
 Threshold Quality   : GOOD
 Integration Quality : GOOD
 Fit Generation Method : AUTO
 Response Quality    : DEFAULT
 Is Range Separated  :  F
 
 RIHartreeFock Dependency: number of modified vectors:           7
 cosmo_calcen: 0.5 (esolb+esolc) (Hartrees) =   -0.293861

 Solvation energy (screening term,uncorrected) =   -184.400339 kcal/mol

 Solvation energy (dispersion and cavitation terms) =      1.167457 kcal/mol
 Solvation Energy Contributions (Hartrees)
          esola   esolb+esolc
     0.29386061   -0.58772123
 esol last cycle   -0.29386061
  
 Hartree-Fock exchange energy:   -622.395009726270     
 cosmo_calcen: 0.5 (esolb+esolc) (Hartrees) =   -0.293861

 Solvation energy (screening term,uncorrected) =   -184.400349 kcal/mol

 Solvation energy (dispersion and cavitation terms) =      1.167457 kcal/mol
 Solvation Energy Contributions (Hartrees)
          esola   esolb+esolc
     0.29386063   -0.58772126
 esol last cycle   -0.29386063

 Energy gradients wrt nuclear displacements
 ==========================================

     Atom      Cartesian (a.u./angstrom)
                 X         Y         Z
 ----------------------------------------
     1 Pa   -0.000240 -0.000085  0.000137
     2 Cl   -0.000240 -0.000137 -0.000023
     3 Cl    0.000027  0.000139  0.000087
     4 Cl   -0.000321  0.000103  0.000030
     5 Cl    0.000063 -0.000151 -0.000067
     6 Cl    0.000061  0.000180  0.000032
     7 O    -0.000002 -0.000076 -0.000166
     8 O     0.000197  0.000058 -0.000020
     9 H     0.000234 -0.000064 -0.000031
    10 H     0.000219  0.000035  0.000022
 ----------------------------------------
 Mulliken charges used for AMS results%charges...

 dE(predicted):    -0.52192E-07, dE(actual):     0.17137E-05, Trust radius:    0.020000, all in a.u.
 
----------------------------------------------------------------------
Geometry Convergence after Step  13       (Hartree/Angstrom,Angstrom)
----------------------------------------------------------------------
current energy                               -2.81411023 Hartree
energy change                       0.00000171     0.00001000    T
constrained gradient max            0.00017143     0.00010000    F
constrained gradient rms            0.00005830     0.00006667    T
gradient max                        0.00017143
gradient rms                        0.00005830
cart. step max                      0.00068235     0.00100000    T
cart. step rms                      0.00028804     0.00066667    T
 
 
--------
Geometry
--------
Formula: H2Cl5O2Pa
Atoms
  Index Symbol   x (angstrom)   y (angstrom)   z (angstrom)
      1     Pa    -0.00408603    -0.71497670     0.41631034       adf.R=2.200
      2     Cl    -0.90173868     1.74139497    -0.36230843       adf.R=1.725
      3     Cl     1.65895178    -2.39167331     1.82936848       adf.R=1.725
      4     Cl     1.40456435     0.99164956     1.99595002       adf.R=1.725
      5     Cl    -1.76163539    -1.24691102    -1.66902213       adf.R=1.725
      6     Cl     1.87902094    -0.58714914    -1.40666917       adf.R=1.725
      7      O    -1.33887688    -0.86766885     1.65466380       adf.R=1.517
      8      O    -0.37386857    -3.20071322    -0.07620364       adf.R=1.517
      9      H    -0.73668352    -3.39216090    -0.94916916       adf.R=1.350
     10      H     0.35682207    -3.80204931     0.10472576       adf.R=1.350
 
Total System Charge            -2.00000
Bonding info available!
 
 *** GO1_GOStep14 ***

 SOLVATION
-------------------------------------------

  The Delley construction of COSMO surface surface is calculated

       Division Level for Surface Triangles (NDIV)                  3
       Final Division Level for Triangles (NFDIV)                   1
       Radius of the Solvent (RSOL)                           1.93000 angstr
  Dielectric Constant (EPSL)                                 78.39000

       COSMO equation is solved iteratively-               conjugate-gradient

       Maximun of Iterations for Charges (NCIX)                  1000
       Criterion for Charge convergence (CCNV)                1.0E-08

  COSMO charges included variationally in SCF

       COSMO included at every SCF cycle

  Geometry-dependent empirical factor                         0.00000

  C-Matrix calculated in cspmtx

  In cspmtx, C-Matrix calculated using fitted potential

-------------------------------------------



 -------------------------------------------
  COSMO surface
  Area             =          624.335
  Volume           =         1149.938
  Number of Points =         1409
 -------------------------------------------



 ======================
 RI Hartree-Fock Scheme
 ======================
  
 Fit Set Quality     : GOOD
 Threshold Quality   : GOOD
 Integration Quality : GOOD
 Fit Generation Method : AUTO
 Response Quality    : DEFAULT
 Is Range Separated  :  F
 
 RIHartreeFock Dependency: number of modified vectors:           7
 cosmo_calcen: 0.5 (esolb+esolc) (Hartrees) =   -0.293869

 Solvation energy (screening term,uncorrected) =   -184.405498 kcal/mol

 Solvation energy (dispersion and cavitation terms) =      1.167458 kcal/mol
 Solvation Energy Contributions (Hartrees)
          esola   esolb+esolc
     0.29386884   -0.58773767
 esol last cycle   -0.29386884
  
 Hartree-Fock exchange energy:   -622.394919411641     
 cosmo_calcen: 0.5 (esolb+esolc) (Hartrees) =   -0.293869

 Solvation energy (screening term,uncorrected) =   -184.405507 kcal/mol

 Solvation energy (dispersion and cavitation terms) =      1.167458 kcal/mol
 Solvation Energy Contributions (Hartrees)
          esola   esolb+esolc
     0.29386885   -0.58773770
 esol last cycle   -0.29386885

 Energy gradients wrt nuclear displacements
 ==========================================

     Atom      Cartesian (a.u./angstrom)
                 X         Y         Z
 ----------------------------------------
     1 Pa   -0.000121 -0.000101  0.000028
     2 Cl   -0.000254 -0.000106 -0.000035
     3 Cl    0.000023  0.000141  0.000081
     4 Cl   -0.000303  0.000124  0.000056
     5 Cl    0.000062 -0.000155 -0.000064
     6 Cl    0.000038  0.000186  0.000057
     7 O    -0.000087 -0.000079 -0.000088
     8 O     0.000188  0.000027 -0.000023
     9 H     0.000231 -0.000067 -0.000034
    10 H     0.000223  0.000030  0.000023
 ----------------------------------------
 Mulliken charges used for AMS results%charges...

 dE(predicted):    -0.43409E-07, dE(actual):     0.10968E-05, Trust radius:    0.020000, all in a.u.
 
---------------------------------------------------------
Geometry Convergence after Step  14       ** CONVERGED **
---------------------------------------------------------
current energy                               -2.81410914 Hartree
energy change                       0.00000110     0.00001000    T
constrained gradient max            0.00009856     0.00010000    T
constrained gradient rms            0.00002836     0.00006667    T
gradient max                        0.00009856
gradient rms                        0.00002836
cart. step max                      0.00050064     0.00100000    T
cart. step rms                      0.00022209     0.00066667    T
 
Geometry optimization converged

Optimized geometry:
 
--------
Geometry
--------
Formula: H2Cl5O2Pa
Atoms
  Index Symbol   x (angstrom)   y (angstrom)   z (angstrom)
      1     Pa    -0.00408603    -0.71497670     0.41631034       adf.R=2.200
      2     Cl    -0.90173868     1.74139497    -0.36230843       adf.R=1.725
      3     Cl     1.65895178    -2.39167331     1.82936848       adf.R=1.725
      4     Cl     1.40456435     0.99164956     1.99595002       adf.R=1.725
      5     Cl    -1.76163539    -1.24691102    -1.66902213       adf.R=1.725
      6     Cl     1.87902094    -0.58714914    -1.40666917       adf.R=1.725
      7      O    -1.33887688    -0.86766885     1.65466380       adf.R=1.517
      8      O    -0.37386857    -3.20071322    -0.07620364       adf.R=1.517
      9      H    -0.73668352    -3.39216090    -0.94916916       adf.R=1.350
     10      H     0.35682207    -3.80204931     0.10472576       adf.R=1.350
 
Total System Charge            -2.00000
Bonding info available!
 
Performing a single point calculation on the final geometry ...

 *** adf ***



 ===========================
 A T T A C H E D   F I L E S
 ===========================
  
 Restart
 /state/partition2/shaaban/1020794.phlam-s-sakura/amstmp_pao_cl5_h2o.pbe0.tz2p.o
 pt-freq-solvation_kid0.1904038862/GO1_GOStep14.rkf*** GO1_GOStep14 ***



 ===============================
 M O D E L   P A R A M E T E R S
 ===============================
  
 DENSITY FUNCTIONAL POTENTIAL (scf)
    Hybrid:                            PBE0                                    == Not Default ==

 SPIN  (restricted / unrestr.)
    Molecule:                          Restricted                               
    Fragments:                         Restricted                               

 OTHER ASPECTS
    Relativistic Corrections:          scalar (ZORA,MAPA)                       

    Nuclear Charge Density Model:      Point Charge Nuclei                      
    Core Treatment:                    Frozen Orbital(s)                        

    Hyperfine or Zeeman Interaction:   ---                                      

 SOLVATION
-------------------------------------------

  The Delley construction of COSMO surface surface is calculated

       Division Level for Surface Triangles (NDIV)                  3
       Final Division Level for Triangles (NFDIV)                   1
       Radius of the Solvent (RSOL)                           1.93000 angstr
  Dielectric Constant (EPSL)                                 78.39000

       COSMO equation is solved iteratively-               conjugate-gradient

       Maximun of Iterations for Charges (NCIX)                  1000
       Criterion for Charge convergence (CCNV)                1.0E-08

  COSMO charges included variationally in SCF

       COSMO included at every SCF cycle

  Geometry-dependent empirical factor                         0.00000

  C-Matrix calculated in cspmtx

  In cspmtx, C-Matrix calculated using fitted potential

-------------------------------------------




 ===============
 G E O M E T R Y  ***  3D  Molecule  ***
 ===============
  

 ATOMS
 =====                            X Y Z                    CHARGE                     RADIUS
                                (Angstrom)             Nucl     +Core       At.Mass (Angstrom)
[...]
 Index  Atom      ---- Displacements (x/y/z) ----
     1    Pa       0.049748   0.004678  -0.046978
     2    Cl      -0.007689   0.017345  -0.003719
     3    Cl       0.009254  -0.010765   0.010919
     4    Cl       0.008515   0.012506   0.013034
     5    Cl      -0.012258  -0.003075  -0.011152
     6    Cl       0.008873   0.000894  -0.008021
     7     O      -0.726689  -0.084125   0.676195
     8     O      -0.007887  -0.019385   0.001922
     9     H       0.016931  -0.002618  -0.015140
    10     H       0.004643  -0.013517  -0.014599
 
 Mode:    28      Frequency (cm-1):     1516.4596     Intensity (km/mol):      251.7835
 Index  Atom      ---- Displacements (x/y/z) ----
     1    Pa       0.000104   0.000130  -0.000082
     2    Cl       0.000055   0.000091   0.000071
     3    Cl       0.000203   0.000828   0.000383
     4    Cl      -0.000040   0.000091  -0.000039
     5    Cl      -0.000064   0.001073   0.000019
     6    Cl      -0.000003   0.000059   0.000029
     7     O      -0.000331  -0.000404   0.000199
     8     O       0.020117  -0.058538  -0.042481
     9     H      -0.469553   0.525481   0.052839
    10     H       0.126531   0.305762   0.620853
 
 Mode:    29      Frequency (cm-1):     3768.6688     Intensity (km/mol):       67.6502
 Index  Atom      ---- Displacements (x/y/z) ----
     1    Pa      -0.000008   0.000046   0.000018
     2    Cl       0.000019  -0.000017   0.000020
     3    Cl      -0.000046   0.000053  -0.000044
     4    Cl      -0.000019  -0.000010  -0.000020
     5    Cl       0.000066   0.000051   0.000088
     6    Cl      -0.000033  -0.000022   0.000026
     7     O       0.000134  -0.000064  -0.000144
     8     O      -0.010579   0.032977   0.034955
     9     H      -0.307527  -0.147129  -0.697063
    10     H       0.475499  -0.387696   0.138038
 
 Mode:    30      Frequency (cm-1):     3872.1602     Intensity (km/mol):      256.7343
 Index  Atom      ---- Displacements (x/y/z) ----
     1    Pa       0.000004  -0.000001   0.000008
     2    Cl      -0.000002  -0.000009  -0.000004
     3    Cl      -0.000055   0.000060  -0.000025
     4    Cl      -0.000005   0.000008  -0.000007
     5    Cl      -0.000028  -0.000036  -0.000072
     6    Cl      -0.000001  -0.000003   0.000004
     7     O       0.000016  -0.000004  -0.000014
     8     O      -0.051388   0.022355  -0.044650
     9     H       0.230187   0.133338   0.565090
    10     H       0.587356  -0.488509   0.145415

 Vibrational polarizability tensor (a.u.):
                  X                   Y                   Z
 X            2313.15498           272.87679           174.19064
 Y             272.87679          2888.77055          -121.92562
 Z             174.19064          -121.92562          2220.83498

 Isotropic =      2474.3    atomic units

PES point character: Geometry corresponds to a local minimum on the PES.




 ============================
 Statistical Thermal Analysis  ***  ideal gas assumed  ***
 ============================
  
 Pressure:                  1.000000 atm.
 Temperature:             298.150000 K



 Moments of Inertia [amu*bohr^2] and principal axis
 ==================================================

        2914.8020       3306.4066       4199.5696
 ------------------------------------------------
          -0.6803          0.0834         -0.7281
           0.2200          0.9709         -0.0943
          -0.6991          0.2244          0.6789


 The rotational contribution to the molecular entropy includes
 a term, dependent on the symmetry number sigma. The results 
 reported below were computed using sigma = 1, determined from
 the point group symmetry of the input geometry (NOSYM). 
 If this is not the correct symmetry, try symmetrizing the molecule before
 running the calculation (note: linear molecules should be aligned along one
 of the Cartesian axes).
 Contributions from frequencies below 20 1/cm are not included in vibrational sums.
 Their contributions, if any, are reported separately.


     Temp                                                        Transl      Rotat     Vibrat     Total
     ----                                                        ------      -----     ------     -----

     298.15   Entropy (cal/mol-K):                               44.134     32.071     52.326    128.530
              Nuclear Internal Energy (kcal/mol):                 0.889      0.889     27.260     29.037
              Constant Volume Heat Capacity (cal/mol-K):          2.981      2.981     37.117     43.078
          (c) Constant Volume Heat Capacity (cal/mol-K):          2.981      2.981     32.112     38.074

       Summary of energy terms
                                                   hartree              eV         kcal/mol           kJ/mol
                                      --------------------     -----------       ----------      -----------
      Energy from Engine:               -2.814109135413581        -76.5758         -1765.88         -7388.44
      Nuclear Internal Energy:           0.046273666414904          1.2592            29.04           121.49
  (c) Nuclear Internal Energy:           0.043697235374500          1.1891            27.42           114.73
      Internal Energy U:                -2.767835468998677        -75.3166         -1736.84         -7266.95
      pV/n = RT:                         0.000944186013486          0.0257             0.59             2.48
      Enthalpy H:                       -2.766891282985191        -75.2909         -1736.25         -7264.47
      -T*S:                             -0.061068658945295         -1.6618           -38.32          -160.34
  (c) -T*S:                             -0.059021758909292         -1.6061           -37.04          -154.96
      Gibbs free energy:                -2.827959941930486        -76.9527         -1774.57         -7424.81
 
 
 
  (c) The properties marked with this symbol have been corrected using 'low vibrational frequency free rotor
      interpolation corrections'. For those terms all positive frequencies are used (also ones below 20 1/cm),
      but the contribution to the partition function of small vibrational frequencies is modified as described
      in the following paper:
      S. Grimme, 'Supramolecular Binding Thermodynamics by Dispersion-Corrected Density Functional Theory'
      (Chem. Eur. J. 2012, 18, 9955-9964)
      Configuration: Dampener Frequency          :   100.000 1/cm
                     Dampener Alpha              :     4.000
                     Averaging Moment of Inertia : 1.000E-44 kg m2

--------------
Atomic charges
--------------
  Index   Atom    Charge
      1     Pa    1.6179
      2     Cl   -0.5993
      3     Cl   -0.6115
      4     Cl   -0.5927
      5     Cl   -0.6249
      6     Cl   -0.4669
      7      O   -0.8005
      8      O   -0.4049
      9      H    0.2421
     10      H    0.2407


Dipole moment vector    (Debye):    -0.81743051   -2.14628910   -5.55905756
              magnitude (Debye):     6.01480428


-----------------------
Molecular orbitals info
-----------------------
n orbitals:              379
n spin:                    1

Note: only printing virtual orbitals with
      energy smaller than HOMO + 100. eV

HOMO (eV):              -7.4664
LUMO (eV):              -1.7769
HOMO-LUMO gap (eV):      5.6895

   Index   Energy (eV)    Occupation
     280       91.0108         0.000       
     279       89.4262         0.000       
     278       87.9048         0.000       
     277       86.4487         0.000       
     276       83.8915         0.000       
     275       83.3078         0.000       
     274       83.1620         0.000       
     273       81.9625         0.000       
     272       80.6155         0.000       
     271       80.2862         0.000       
     270       79.5299         0.000       
     269       78.8039         0.000       
     268       76.1617         0.000       
     267       75.0624         0.000       
     266       73.8858         0.000       
     265       73.5365         0.000       
     264       73.5126         0.000       
     263       73.0188         0.000       
     262       72.9367         0.000       
     261       71.2205         0.000       
     260       70.9824         0.000       
     259       70.7462         0.000       
     258       70.2341         0.000       
     257       69.9672         0.000       
     256       69.1379         0.000       
     255       68.9950         0.000       
     254       68.9405         0.000       
     253       68.0713         0.000       
     252       67.6965         0.000       
     251       66.9436         0.000       
     250       66.8907         0.000       
     249       65.9158         0.000       
     248       65.2702         0.000       
     247       63.6778         0.000       
     246       60.1415         0.000       
     245       59.9382         0.000       
     244       59.4900         0.000       
     243       56.9650         0.000       
     242       55.8530         0.000       
     241       54.7922         0.000       
     240       52.8101         0.000       
     239       50.7471         0.000       
     238       50.5917         0.000       
     237       48.6801         0.000       
     236       48.4257         0.000       
     235       43.5713         0.000       
     234       43.5227         0.000       
     233       42.7873         0.000       
     232       42.6505         0.000       
     231       41.5455         0.000       
     230       41.1289         0.000       
     229       40.9437         0.000       
     228       40.8508         0.000       
     227       40.4768         0.000       
     226       40.1562         0.000       
     225       39.8413         0.000       
     224       39.5928         0.000       
     223       39.3514         0.000       
     222       38.9676         0.000       
     221       38.8153         0.000       
     220       38.7649         0.000       
     219       38.2516         0.000       
     218       38.2399         0.000       
     217       38.1177         0.000       
     216       38.0311         0.000       
     215       37.9305         0.000       
     214       37.5357         0.000       
     213       37.4405         0.000       
     212       37.3734         0.000       
     211       37.2756         0.000       
     210       37.0564         0.000       
     209       36.9511         0.000       
     208       36.7529         0.000       
     207       36.6690         0.000       
     206       36.4805         0.000       
     205       36.3525         0.000       
     204       36.0807         0.000       
     203       35.9784         0.000       
     202       35.7577         0.000       
     201       35.2195         0.000       
     200       35.0443         0.000       
     199       34.8456         0.000       
     198       34.6748         0.000       
     197       34.0237         0.000       
     196       33.9106         0.000       
     195       33.6709         0.000       
     194       32.5917         0.000       
     193       31.2360         0.000       
     192       29.8648         0.000       
     191       29.3752         0.000       
     190       28.9426         0.000       
     189       27.9493         0.000       
     188       27.1788         0.000       
     187       26.2602         0.000       
     186       25.4752         0.000       
     185       24.9982         0.000       
     184       24.6394         0.000       
     183       24.1154         0.000       
     182       23.7470         0.000       
     181       23.5347         0.000       
     180       23.0421         0.000       
     179       22.3492         0.000       
     178       21.8483         0.000       
     177       21.6600         0.000       
     176       21.5853         0.000       
     175       21.1284         0.000       
     174       20.2852         0.000       
     173       20.1981         0.000       
     172       18.9902         0.000       
     171       18.8486         0.000       
     170       18.3078         0.000       
     169       17.9938         0.000       
     168       17.8827         0.000       
     167       17.7121         0.000       
     166       16.6316         0.000       
     165       16.5907         0.000       
     164       15.9443         0.000       
     163       15.8871         0.000       
     162       15.7076         0.000       
     161       15.6205         0.000       
     160       15.4280         0.000       
     159       15.3627         0.000       
     158       14.9389         0.000       
     157       14.4757         0.000       
     156       14.3161         0.000       
     155       14.2882         0.000       
     154       14.1076         0.000       
     153       14.0465         0.000       
     152       13.5790         0.000       
     151       13.4328         0.000       
     150       13.3801         0.000       
     149       13.1784         0.000       
     148       12.6046         0.000       
     147       12.4876         0.000       
     146       12.1288         0.000       
     145       12.0893         0.000       
     144       11.5521         0.000       
     143       11.2900         0.000       
     142       11.1313         0.000       
     141       11.0797         0.000       
     140       10.8406         0.000       
     139       10.4799         0.000       
     138       10.3797         0.000       
     137        9.9407         0.000       
     136        9.8328         0.000       
     135        9.5578         0.000       
     134        9.3907         0.000       
     133        9.3444         0.000       
     132        9.3098         0.000       
     131        9.0004         0.000       
     130        8.7411         0.000       
     129        8.5042         0.000       
     128        8.3209         0.000       
     127        7.8768         0.000       
     126        7.5979         0.000       
     125        7.3694         0.000       
     124        7.2908         0.000       
     123        7.0383         0.000       
     122        6.0502         0.000       
     121        5.6185         0.000       
     120        4.5828         0.000       
     119        4.0303         0.000       
     118        3.5096         0.000       
     117        3.1357         0.000       
     116        2.8057         0.000       
     115        2.7869         0.000       
     114        2.6658         0.000       
     113        2.3001         0.000       
     112        2.2955         0.000       
     111        1.7461         0.000       
     110        1.6971         0.000       
     109        1.6403         0.000       
     108        1.4698         0.000       
     107        0.9783         0.000       
     106        0.2037         0.000       
     105       -0.7853         0.000       
     104       -1.4322         0.000       
     103       -1.4453         0.000       
     102       -1.5959         0.000       
     101       -1.6898         0.000       
     100       -1.7606         0.000       
      99       -1.7769         0.000 < LUMO
      98       -7.4664         2.000 < HOMO
      97       -7.9131         2.000       
      96       -8.0216         2.000       
      95       -8.0623         2.000       
      94       -8.1432         2.000       
      93       -8.1984         2.000       
      92       -8.2514         2.000       
      91       -8.5934         2.000       
      90       -8.6617         2.000       
      89       -8.7179         2.000       
      88       -9.0108         2.000       
      87       -9.0616         2.000       
      86       -9.1322         2.000       
      85       -9.3298         2.000       
      84       -9.6516         2.000       
      83       -9.9155         2.000       
      82      -10.1975         2.000       
      81      -10.3653         2.000       
      80      -10.7294         2.000       
      79      -12.6491         2.000       
      78      -16.0698         2.000       
      77      -20.5797         2.000       
      76      -20.9254         2.000       
      75      -20.9933         2.000       
      74      -21.2570         2.000       
      73      -21.4930         2.000       
      72      -22.5531         2.000       
      71      -25.5984         2.000       
      70      -25.7636         2.000       
      69      -29.4854         2.000       
      68      -29.6698         2.000       
      67      -50.2249         2.000       
      66     -100.1516         2.000       
      65     -100.1956         2.000       
      64     -100.2010         2.000       
      63     -100.2980         2.000       
      62     -100.3012         2.000       
      61     -195.7829         2.000       
      60     -195.7904         2.000       
      59     -195.8069         2.000       
      58     -195.8109         2.000       
      57     -195.8188         2.000       
      56     -195.8228         2.000       
      55     -195.8259         2.000       
      54     -195.8448         2.000       
      53     -195.8503         2.000       
      52     -195.8544         2.000       
      51     -195.8578         2.000       
      50     -195.8877         2.000       
      49     -196.4349         2.000       
      48     -196.4378         2.000       
      47     -196.4687         2.000       
      46     -207.2958         2.000       
      45     -207.5678         2.000       
      44     -207.5775         2.000       
      43     -259.3497         2.000       
      42     -259.3717         2.000       
      41     -259.3851         2.000       
      40     -259.4150         2.000       
      39     -259.9989         2.000       
      38     -306.0055         2.000       
      37     -361.2513         2.000       
      36     -361.2855         2.000       
      35     -361.2914         2.000       
      34     -361.4210         2.000       
      33     -361.4286         2.000       
      32     -361.5579         2.000       
      31     -361.5597         2.000       
      30     -522.5677         2.000       
      29     -524.1091         2.000       
      28     -713.0681         2.000       
      27     -713.2191         2.000       
      26     -713.2252         2.000       
      25     -713.4033         2.000       
      24     -713.4154         2.000       
      23    -1041.3496         2.000       
      22    -1041.6665         2.000       
      21    -1041.6763         2.000       
      20    -1359.7425         2.000       
      19    -2775.5316         2.000       
      18    -2775.5546         2.000       
      17    -2775.5667         2.000       
      16    -2775.5969         2.000       
      15    -2776.1807         2.000       
      14    -3484.9559         2.000       
      13    -3485.0138         2.000       
      12    -3485.0161         2.000       
      11    -3485.0997         2.000       
      10    -3485.1039         2.000       
       9    -4347.1673         2.000       
       8    -4347.3446         2.000       
       7    -4347.3494         2.000       
       6    -5318.3477         2.000       
       5   -17561.2936         2.000       
       4   -17561.3197         2.000       
       3   -17561.3208         2.000       
       2   -21037.1116         2.000       
       1  -112698.9060         2.000       

Final PES point is a local minimum. Geometry optimization successful!


AMS application finished. Exiting.
NORMAL TERMINATION
     Total cpu time:   21390.44
  Total system time:     860.83
 Total elapsed time:   22276.38
