

 Parallel Execution: Process Information
 ==============================================================================
 Rank   Node Name                              NodeID   MyNodeRank  NodeMaster
    0   u-0-6.local                               0          0          0
    1   u-0-6.local                               0          1         -1
    2   u-0-6.local                               1          0          1
    3   u-0-6.local                               1          1         -1
    4   u-0-6.local                               2          0          2
    5   u-0-6.local                               2          1         -1
    6   u-0-6.local                               3          0          3
    7   u-0-6.local                               3          1         -1
 ==============================================================================


May use up to 31228MB of RAM as shared memory on node 0
May use up to 31250MB of RAM as shared memory on node 1
May use up to 31250MB of RAM as shared memory on node 2
May use up to 31250MB of RAM as shared memory on node 3

 *******************************************************************************
 *                                                                             *
 *  --------------------------------                                           *
 *   Amsterdam Modeling Suite (AMS)              2024.102                      *
 *  --------------------------------                                           *
 *                                               r122055 2024-06-07            *
 *                                                                             *
 *                                                                             *
 *                              =================                              *
 *                              |               |                              *
 *                              |     A M S     |                              *
 *                              |               |                              *
 *                              =================                              *
 *                                                                             *
 *                                                                             *
 *   Online information and documentation:  https://www.scm.com/support/       *
 *   E-mail:  support@scm.com   info@scm.com                                   *
 *                                                                             *
 *   Scientific publications using AMS results must be properly referenced     *
 *   See the User Manuals (or the web site) for recommended citations          *
 *   The terms and conditions of the End User License Agreement apply to       *
 *   the use of AMS, https://www.scm.com/license-terms/                        *
 *                                                                             *
 **********************  x86_64_linux_intel / intelmpi  ************************
 
 Licensed to: Dr. Val?rie Vallet / Laboratoire PhLAM UMR 8523 / Villeneuve d'Ascq Cedex / FRANCE 2024-02-19 16:59:55
 SCM User ID: u10325
  
 AMS 2024.102  RunTime: Sep10-2024 12:16:10  ShM Nodes: 4  Procs: 8

 AMS jobname: pao_cl5_h2o.SR.pbe0.tz2p.sp-gp
 AMS jobid  : 1396297840

 Start   directory: /state/partition2/shaaban/1027887.phlam-s-sakura/
 Results directory: /home/shaaban/ams/PhD/geometries-exafs/pao-chloride/pao_cl5_h2o/PBE0/pao_cl5_h2o.SR.pbe0.tz2p.sp-gp.results/
 Scratch directory: /state/partition2/shaaban/1027887.phlam-s-sakura/amstmp_pao_cl5_h2o.SR.pbe0.tz2p.sp-gp_kid0.1396297840/


 Communication costs MPI_COMM_WORLD:      2.877 usec per message,   0.0103 usec per 8-byte item
 Communication costs for intra-node:      0.522 usec per message,   0.0025 usec per 8-byte item

 RNG seed: -2040009018 189418450 675223025 -1660427444 -70815897 -1143829738 882595324 -1888990269



                      ************************************************************************
                      *  ADF 2024.102  RunTime: Sep10-2024 12:16:12  ShM Nodes: 4  Procs: 8  *
                      ************************************************************************
  

       ****************************
       * SINGLE POINT CALCULATION *
       ****************************
 
--------
Geometry
--------
Formula: H2Cl5O2Pa
Atoms
  Index Symbol   x (angstrom)   y (angstrom)   z (angstrom)
      1     Pa    -0.00408603    -0.71497670     0.41631034
      2     Cl    -0.90173868     1.74139497    -0.36230843
      3     Cl     1.65895178    -2.39167331     1.82936848
      4     Cl     1.40456435     0.99164956     1.99595002
      5     Cl    -1.76163539    -1.24691102    -1.66902213
      6     Cl     1.87902094    -0.58714914    -1.40666917
      7      O    -1.33887688    -0.86766885     1.65466380
      8      O    -0.37386857    -3.20071322    -0.07620364
      9      H    -0.73668352    -3.39216090    -0.94916916
     10      H     0.35682207    -3.80204931     0.10472576
 
Total System Charge            -2.00000
Bonding info available!
 
 
----------------
ADF Engine Input
----------------
 
 Basis
 Type TZ2P
 Core None
 End
 XC
 Hybrid PBE0
 End
 NumericalQuality Good
 MBPT
 SigmaFunctionalParametrization W1
 End
 

 Title: *** (NO TITLE) ***

 *** adf ***



 ===========================
 A T T A C H E D   F I L E S
 ===========================
  



 ===============================
 M O D E L   P A R A M E T E R S
 ===============================
  
 DENSITY FUNCTIONAL POTENTIAL (scf)
    Hybrid:                            PBE0                                    == Not Default ==

 SPIN  (restricted / unrestr.)
    Molecule:                          Restricted                               
    Fragments:                         Restricted                               

 OTHER ASPECTS
    Relativistic Corrections:          scalar (ZORA,MAPA)                       

    Nuclear Charge Density Model:      Point Charge Nuclei                      
    Core Treatment:                    Frozen Orbital(s)                        

    Hyperfine or Zeeman Interaction:   ---                                      


 Fragment File(s)
 ----------------
 Pa:
         file : /home/shaaban/ams/PhD/geometries-exafs/pao-chloride/pao_cl5_h2o/PBE0/pao_cl5_h2o.SR.pbe0.tz2p.sp-gp.results/t21.5DB43083.Pa
         jobid: 0
         title: Protactinium (TZ2P, all electron)
 Cl:
         file : /home/shaaban/ams/PhD/geometries-exafs/pao-chloride/pao_cl5_h2o/PBE0/pao_cl5_h2o.SR.pbe0.tz2p.sp-gp.results/t21.D7FD811.Cl
         jobid: 0
         title: Chlorine (TZ2P)
 O:
         file : /home/shaaban/ams/PhD/geometries-exafs/pao-chloride/pao_cl5_h2o/PBE0/pao_cl5_h2o.SR.pbe0.tz2p.sp-gp.results/t21.64F429D6.O
         jobid: 0
         title: Oxygen (TZ2P)
 H:
         file : /home/shaaban/ams/PhD/geometries-exafs/pao-chloride/pao_cl5_h2o/PBE0/pao_cl5_h2o.SR.pbe0.tz2p.sp-gp.results/t21.DEE514F.H
         jobid: 0
         title: Hydrogen (TZ2P)



 ===============
 G E O M E T R Y  ***  3D  Molecule  ***
 ===============
  

 ATOMS
 =====                            X Y Z                    CHARGE
                                (Angstrom)             Nucl     +Core       At.Mass
                       --------------------------    ----------------       -------
    1  Pa             -0.0041   -0.7150    0.4163     91.00     91.00      231.0359
    2  Cl             -0.9017    1.7414   -0.3623     17.00     17.00       34.9689
    3  Cl              1.6590   -2.3917    1.8294     17.00     17.00       34.9689
    4  Cl              1.4046    0.9916    1.9960     17.00     17.00       34.9689
    5  Cl             -1.7616   -1.2469   -1.6690     17.00     17.00       34.9689
    6  Cl              1.8790   -0.5871   -1.4067     17.00     17.00       34.9689
    7  O              -1.3389   -0.8677    1.6547      8.00      8.00       15.9949
    8  O              -0.3739   -3.2007   -0.0762      8.00      8.00       15.9949
    9  H              -0.7367   -3.3922   -0.9492      1.00      1.00        1.0078
   10  H               0.3568   -3.8020    0.1047      1.00      1.00        1.0078


 FRAGMENTS
 =========                                     Atoms in this Fragment     Cart. coord.s (Angstrom)
                                               -------------------------------------------------------
    1  Pa                                                1  Pa          -0.0041   -0.7150    0.4163
    2  Cl                                                2  Cl          -0.9017    1.7414   -0.3623
    3  Cl                                                3  Cl           1.6590   -2.3917    1.8294
    4  Cl                                                4  Cl           1.4046    0.9916    1.9960
    5  Cl                                                5  Cl          -1.7616   -1.2469   -1.6690
    6  Cl                                                6  Cl           1.8790   -0.5871   -1.4067
    7  O                                                 7  O           -1.3389   -0.8677    1.6547
    8  O                                                 8  O           -0.3739   -3.2007   -0.0762
    9  H                                                 9  H           -0.7367   -3.3922   -0.9492
   10  H                                                10  H            0.3568   -3.8020    0.1047


 Interatomic Distance Matrix (Angstrom)
 --------------------------------------

   1)     0.000
   2)     2.729   0.000
   3)     2.752   5.333   0.000
   4)     2.719   3.383   3.397   0.000
   5)     2.779   3.373   5.025   5.336   0.000
   6)     2.624   3.774   3.712   3.781   3.709   0.000
   7)     1.827   3.327   3.368   3.332   3.372   4.450   0.000
   8)     2.561   4.978   2.901   5.003   2.878   3.698   3.061   0.000
   9)     3.093   5.170   3.803   5.699   2.484   3.863   3.676   0.965   0.000
  10)     3.124   5.704   2.581   5.259   3.763   3.865   3.727   0.963   1.573   0.000

 Min. Distance =    0.9635
 Max. Distance =    5.7037



 =====================================
 S Y M M E T R Y ,   E L E C T R O N S
 =====================================
  
 Symmetry: NOSYM

 Irreducible Representations, including subspecies
 -------------------------------------------------
 A

 Symmetry is NOT used when fitting density


 Configuration of Valence Electrons
 ==================================
 ( determined in the SCF procedure )

 Total:   196

 Net Charge: -2 (Nuclei minus Electrons)

 Aufbau principle for MO occupations will be applied through SCF cycle no.     150
 Thereafter, the program will assign electrons to MOs that are spatially
 similar to the occupied MOs in a "reference" cycle ("KeepOrbitals").
 The reference cycle is always the PREVIOUS cycle: it will evolve with
 the SCF procedure.
1
 ***************************************************************************************************



                                      ****************************************
                                      *  B U I L D : (Fragments, Functions)  *
                                      ****************************************
  



 =======
 S F O s  ***  (Symmetrized Fragment Orbitals)  ***
 =======
  
 SFOs are linear combinations of (valence) Fragment Orbitals (FOs), such that the SFOs transform as the
 irreducible representations of the (molecular) symmetry group. Each SFO is therefore characterized by
 an irrep of the molecule and by a few (or only one) generating FOs.
 The SFOs constitute a symmetry-adapted basis for the Fock matrix. The MO eigenvector coefficients in
 this basis provide a direct interpretation of the MOs in terms of Frontier Orbital Theory.

 The SFOs are combined with auxiliary Core Functions (CFs) to ensure orthogonalization on the (frozen)
 Core Orbitals (COs). The Core-orthogonalized SFOs (CSFOs) constitute the true Fock basis.

 The FOs, and hence also the (C)SFOs are combinations of the elementary basis functions (BAS). The basis
 functions that participate in the description of the SFOs depend on the irrep. The indices of the
 involved functions are printed below for each irrep.
 (The complete list of primitive basis functions is printed in another section)

 Total nr. of (C)SFOs (summation over all irreps) :   379

 NOTE: a (C)SFO that is defined as a combination of more than one FO is usually NOT normalized.



                                       === A ===
 Nr. of SFOs :  379
 Cartesian basis functions that participate in this irrep (total number =   433) :
      1     2     3     4     5     6     7     8     9    10
     11    12    13    14    15    16    17    20    23    26
     29    32    35    38    41    44    47    50   157    18
     21    24    27    30    33    36    39    42    45    48
     51   158    19    22    25    28    31    34    37    40
     43    46    49    52   159    53    59    65    71    77
     83    89    95   101    54    60    66    72    78    84
     90    96   102    55    61    67    73    79    85    91
     97   103    56    62    68    74    80    86    92    98
    104    57    63    69    75    81    87    93    99   105
     58    64    70    76    82    88    94   100   106   107
    117   127   137   147   108   118   128   138   148   109
    119   129   139   149   110   120   130   140   150   111
    121   131   141   151   112   122   132   142   152   113
    123   133   143   153   114   124   134   144   154   115
    125   135   145   155   116   126   136   146   156   160
    161   162   163   170   171   172   164   167   173   176
    179   165   168   174   177   180   166   169   175   178
    181   182   183   184   185   186   187   188   189   190
    191   192   193   194   195   196   197   198   199   200
    201   208   209   210   202   205   211   214   217   203
    206   212   215   218   204   207   213   216   219   220
    221   222   223   224   225   226   227   228   229   230
    231   232   233   234   235   236   237   238   239   246
    247   248   240   243   249   252   255   241   244   250
    253   256   242   245   251   254   257   258   259   260
    261   262   263   264   265   266   267   268   269   270
    271   272   273   274   275   276   277   284   285   286
    278   281   287   290   293   279   282   288   291   294
    280   283   289   292   295   296   297   298   299   300
    301   302   303   304   305   306   307   308   309   310
    311   312   313   314   315   322   323   324   316   319
    325   328   331   317   320   326   329   332   318   321
    327   330   333   334   335   336   337   338   339   340
    341   342   343   344   345   346   347   348   349   350
    351   352   353   354   355   358   361   356   359   362
    357   360   363   364   365   366   367   368   369   370
    371   372   373   374   375   376   377   378   379   380
    381   382   383   384   385   388   391   386   389   392
    387   390   393   394   395   396   397   398   399   400
    401   402   403   404   405   406   407   408   409   410
    411   412   413   414   415   416   417   418   419   420
    421   422   423   424   425   426   427   428   429   430
    431   432   433

    SFO  (index         Fragment          Generating    Expansion in Fragment Orbitals
  indx  incl.CFs)   Occup   Orb.Energy   FragmentType  Coeff.   Orbital     on Fragment
 --------------------------------------------------------------------------------------
     1       1      2.000   -4141.526 au  Pa            1.00      1 S               1
                        ( -112696.657 eV)
     2       2      2.000    -772.998 au  Pa            1.00      2 S               1
                        (  -21034.347 eV)
     3       3      2.000    -195.328 au  Pa            1.00      3 S               1
                        (   -5315.156 eV)
     4       4      2.000     -49.855 au  Pa            1.00      4 S               1
                        (   -1356.621 eV)
     5       5      2.000     -11.133 au  Pa            1.00      5 S               1
                        (    -302.952 eV)
     6       6      2.000      -1.795 au  Pa            1.00      6 S               1
                        (     -48.841 eV)
     7       7      2.000      -0.175 au  Pa            1.00      7 S               1
                        (      -4.760 eV)
     8       8       --         0.034 au  Pa            1.00      8 S               1
                        (       0.919 eV)
     9       9       --         0.339 au  Pa            1.00      9 S               1
                        (       9.238 eV)
    10      10       --         1.683 au  Pa            1.00     10 S               1
                        (      45.798 eV)
    11      11       --         8.710 au  Pa            1.00     11 S               1
                        (     237.014 eV)
    12      12       --        46.395 au  Pa            1.00     12 S               1
                        (    1262.476 eV)
    13      13       --      1052.783 au  Pa            1.00     13 S               1
                        (   28647.695 eV)
    14      14       --      5424.849 au  Pa            1.00     14 S               1
                        (  147617.662 eV)
    15      15       --     16328.088 au  Pa            1.00     15 S               1
                        (  444309.889 eV)
    16      16       --     46435.709 au  Pa            1.00     16 S               1
                        ( 1263579.939 eV)
    17      17      2.000    -645.265 au  Pa            1.00      1 P:x             1
                        (  -17558.565 eV)
    18      18      2.000    -159.642 au  Pa            1.00      2 P:x             1
                        (   -4344.092 eV)
    19      19      2.000     -38.162 au  Pa            1.00      3 P:x             1
                        (   -1038.447 eV)
    20      20      2.000      -7.518 au  Pa            1.00      4 P:x             1
                        (    -204.571 eV)
    21      21      2.000      -0.902 au  Pa            1.00      5 P:x             1
                        (     -24.533 eV)
    22      22       --        -0.009 au  Pa            1.00      6 P:x             1
                        (      -0.239 eV)
    23      23       --         0.410 au  Pa            1.00      7 P:x             1
                        (      11.153 eV)
    24      24       --         1.860 au  Pa            1.00      8 P:x             1
                        (      50.626 eV)
    25      25       --         7.599 au  Pa            1.00      9 P:x             1
                        (     206.767 eV)
    26      26       --        36.007 au  Pa            1.00     10 P:x             1
                        (     979.808 eV)
    27      27       --       178.692 au  Pa            1.00     11 P:x             1
                        (    4862.446 eV)
    28      28       --      1510.091 au  Pa            1.00     12 P:x             1
                        (   41091.664 eV)
    29      29       --     10784.724 au  Pa            1.00     13 P:x             1
                        (  293467.260 eV)
    30      30      2.000    -645.265 au  Pa            1.00      1 P:y             1
                        (  -17558.565 eV)
    31      31      2.000    -159.642 au  Pa            1.00      2 P:y             1
                        (   -4344.092 eV)
    32      32      2.000     -38.162 au  Pa            1.00      3 P:y             1
                        (   -1038.447 eV)
    33      33      2.000      -7.518 au  Pa            1.00      4 P:y             1
                        (    -204.571 eV)
    34      34      2.000      -0.902 au  Pa            1.00      5 P:y             1
                        (     -24.533 eV)
    35      35       --        -0.009 au  Pa            1.00      6 P:y             1
                        (      -0.239 eV)
    36      36       --         0.410 au  Pa            1.00      7 P:y             1
                        (      11.153 eV)
    37      37       --         1.860 au  Pa            1.00      8 P:y             1
                        (      50.626 eV)
    38      38       --         7.599 au  Pa            1.00      9 P:y             1
                        (     206.767 eV)
    39      39       --        36.007 au  Pa            1.00     10 P:y             1
                        (     979.808 eV)
    40      40       --       178.692 au  Pa            1.00     11 P:y             1
                        (    4862.446 eV)
    41      41       --      1510.091 au  Pa            1.00     12 P:y             1
                        (   41091.664 eV)
    42      42       --     10784.724 au  Pa            1.00     13 P:y             1
                        (  293467.260 eV)
    43      43      2.000    -645.265 au  Pa            1.00      1 P:z             1
                        (  -17558.565 eV)
    44      44      2.000    -159.642 au  Pa            1.00      2 P:z             1
                        (   -4344.092 eV)
    45      45      2.000     -38.162 au  Pa            1.00      3 P:z             1
                        (   -1038.447 eV)
    46      46      2.000      -7.518 au  Pa            1.00      4 P:z             1
                        (    -204.571 eV)
    47      47      2.000      -0.902 au  Pa            1.00      5 P:z             1
                        (     -24.533 eV)
    48      48       --        -0.009 au  Pa            1.00      6 P:z             1
                        (      -0.239 eV)
    49      49       --         0.410 au  Pa            1.00      7 P:z             1
                        (      11.153 eV)
    50      50       --         1.860 au  Pa            1.00      8 P:z             1
                        (      50.626 eV)
    51      51       --         7.599 au  Pa            1.00      9 P:z             1
                        (     206.767 eV)
    52      52       --        36.007 au  Pa            1.00     10 P:z             1
                        (     979.808 eV)
    53      53       --       178.692 au  Pa            1.00     11 P:z             1
                        (    4862.446 eV)
    54      54       --      1510.091 au  Pa            1.00     12 P:z             1
                        (   41091.664 eV)
    55      55       --     10784.724 au  Pa            1.00     13 P:z             1
                        (  293467.260 eV)
    56      56      2.000    -127.956 au  Pa            1.00      1 D:z2            1
                        (   -3481.863 eV)
    57      57      2.000     -26.098 au  Pa            1.00      2 D:z2            1
                        (    -710.150 eV)
    58      58      2.000      -3.589 au  Pa            1.00      3 D:z2            1
                        (     -97.672 eV)
    59      59      0.200      -0.066 au  Pa            1.00      4 D:z2            1
                        (      -1.800 eV)
    60      60       --         0.087 au  Pa            1.00      5 D:z2            1
                        (       2.364 eV)
    61      61       --         0.570 au  Pa            1.00      6 D:z2            1
                        (      15.503 eV)
    62      62       --         3.614 au  Pa            1.00      7 D:z2            1
                        (      98.350 eV)
    63      63       --        25.065 au  Pa            1.00      8 D:z2            1
                        (     682.063 eV)
    64      64       --       205.007 au  Pa            1.00      9 D:z2            1
                        (    5578.517 eV)
    65      65      2.000    -127.956 au  Pa            1.00      1 D:x2-y2         1
                        (   -3481.863 eV)
    66      66      2.000     -26.098 au  Pa            1.00      2 D:x2-y2         1
                        (    -710.150 eV)
    67      67      2.000      -3.589 au  Pa            1.00      3 D:x2-y2         1
                        (     -97.672 eV)
    68      68      0.200      -0.066 au  Pa            1.00      4 D:x2-y2         1
                        (      -1.800 eV)
    69      69       --         0.087 au  Pa            1.00      5 D:x2-y2         1
                        (       2.364 eV)
    70      70       --         0.570 au  Pa            1.00      6 D:x2-y2         1
                        (      15.503 eV)
    71      71       --         3.614 au  Pa            1.00      7 D:x2-y2         1
                        (      98.350 eV)
    72      72       --        25.065 au  Pa            1.00      8 D:x2-y2         1
                        (     682.063 eV)
    73      73       --       205.007 au  Pa            1.00      9 D:x2-y2         1
                        (    5578.517 eV)
    74      74      2.000    -127.956 au  Pa            1.00      1 D:xy            1
                        (   -3481.863 eV)
    75      75      2.000     -26.098 au  Pa            1.00      2 D:xy            1
                        (    -710.150 eV)
    76      76      2.000      -3.589 au  Pa            1.00      3 D:xy            1
                        (     -97.672 eV)
    77      77      0.200      -0.066 au  Pa            1.00      4 D:xy            1
                        (      -1.800 eV)
    78      78       --         0.087 au  Pa            1.00      5 D:xy            1
                        (       2.364 eV)
    79      79       --         0.570 au  Pa            1.00      6 D:xy            1
                        (      15.503 eV)
    80      80       --         3.614 au  Pa            1.00      7 D:xy            1
                        (      98.350 eV)
    81      81       --        25.065 au  Pa            1.00      8 D:xy            1
                        (     682.063 eV)
    82      82       --       205.007 au  Pa            1.00      9 D:xy            1
                        (    5578.517 eV)
    83      83      2.000    -127.956 au  Pa            1.00      1 D:xz            1
                        (   -3481.863 eV)
    84      84      2.000     -26.098 au  Pa            1.00      2 D:xz            1
                        (    -710.150 eV)
    85      85      2.000      -3.589 au  Pa            1.00      3 D:xz            1
                        (     -97.672 eV)
    86      86      0.200      -0.066 au  Pa            1.00      4 D:xz            1
                        (      -1.800 eV)
    87      87       --         0.087 au  Pa            1.00      5 D:xz            1
                        (       2.364 eV)
    88      88       --         0.570 au  Pa            1.00      6 D:xz            1
                        (      15.503 eV)
    89      89       --         3.614 au  Pa            1.00      7 D:xz            1
                        (      98.350 eV)
    90      90       --        25.065 au  Pa            1.00      8 D:xz            1
                        (     682.063 eV)
    91      91       --       205.007 au  Pa            1.00      9 D:xz            1
                        (    5578.517 eV)
    92      92      2.000    -127.956 au  Pa            1.00      1 D:yz            1
                        (   -3481.863 eV)
    93      93      2.000     -26.098 au  Pa            1.00      2 D:yz            1
                        (    -710.150 eV)
    94      94      2.000      -3.589 au  Pa            1.00      3 D:yz            1
                        (     -97.672 eV)
    95      95      0.200      -0.066 au  Pa            1.00      4 D:yz            1
                        (      -1.800 eV)
    96      96       --         0.087 au  Pa            1.00      5 D:yz            1
                        (       2.364 eV)
    97      97       --         0.570 au  Pa            1.00      6 D:yz            1
                        (      15.503 eV)
    98      98       --         3.614 au  Pa            1.00      7 D:yz            1
                        (      98.350 eV)
    99      99       --        25.065 au  Pa            1.00      8 D:yz            1
                        (     682.063 eV)
   100     100       --       205.007 au  Pa            1.00      9 D:yz            1
                        (    5578.517 eV)
   101     101      2.000     -13.166 au  Pa            1.00      1 F:z3            1
                        (    -358.254 eV)
   102     102      0.286      -0.038 au  Pa            1.00      2 F:z3            1
                        (      -1.040 eV)
   103     103       --         0.423 au  Pa            1.00      3 F:z3            1
                        (      11.518 eV)
   104     104       --         2.565 au  Pa            1.00      4 F:z3            1
                        (      69.799 eV)
   105     105       --        21.684 au  Pa            1.00      5 F:z3            1
                        (     590.042 eV)
   106     106      2.000     -13.166 au  Pa            1.00      1 F:z             1
                        (    -358.254 eV)
   107     107      0.286      -0.038 au  Pa            1.00      2 F:z             1
                        (      -1.040 eV)
   108     108       --         0.423 au  Pa            1.00      3 F:z             1
                        (      11.518 eV)
   109     109       --         2.565 au  Pa            1.00      4 F:z             1
                        (      69.799 eV)
   110     110       --        21.684 au  Pa            1.00      5 F:z             1
                        (     590.042 eV)
   111     111      2.000     -13.166 au  Pa            1.00      1 F:xyz           1
                        (    -358.254 eV)
   112     112      0.286      -0.038 au  Pa            1.00      2 F:xyz           1
                        (      -1.040 eV)
   113     113       --         0.423 au  Pa            1.00      3 F:xyz           1
                        (      11.518 eV)
   114     114       --         2.565 au  Pa            1.00      4 F:xyz           1
                        (      69.799 eV)
   115     115       --        21.684 au  Pa            1.00      5 F:xyz           1
                        (     590.042 eV)
   116     116      2.000     -13.166 au  Pa            1.00      1 F:z2x           1
                        (    -358.254 eV)
   117     117      0.286      -0.038 au  Pa            1.00      2 F:z2x           1
                        (      -1.040 eV)
   118     118       --         0.423 au  Pa            1.00      3 F:z2x           1
                        (      11.518 eV)
   119     119       --         2.565 au  Pa            1.00      4 F:z2x           1
                        (      69.799 eV)
   120     120       --        21.684 au  Pa            1.00      5 F:z2x           1
                        (     590.042 eV)
   121     121      2.000     -13.166 au  Pa            1.00      1 F:z2y           1
                        (    -358.254 eV)
   122     122      0.286      -0.038 au  Pa            1.00      2 F:z2y           1
                        (      -1.040 eV)
   123     123       --         0.423 au  Pa            1.00      3 F:z2y           1
                        (      11.518 eV)
   124     124       --         2.565 au  Pa            1.00      4 F:z2y           1
                        (      69.799 eV)
   125     125       --        21.684 au  Pa            1.00      5 F:z2y           1
                        (     590.042 eV)
   126     126      2.000     -13.166 au  Pa            1.00      1 F:x             1
                        (    -358.254 eV)
   127     127      0.286      -0.038 au  Pa            1.00      2 F:x             1
                        (      -1.040 eV)
   128     128       --         0.423 au  Pa            1.00      3 F:x             1
                        (      11.518 eV)
   129     129       --         2.565 au  Pa            1.00      4 F:x             1
                        (      69.799 eV)
   130     130       --        21.684 au  Pa            1.00      5 F:x             1
                        (     590.042 eV)
   131     131      2.000     -13.166 au  Pa            1.00      1 F:y             1
                        (    -358.254 eV)
   132     132      0.286      -0.038 au  Pa            1.00      2 F:y             1
                        (      -1.040 eV)
   133     133       --         0.423 au  Pa            1.00      3 F:y             1
                        (      11.518 eV)
   134     134       --         2.565 au  Pa            1.00      4 F:y             1
                        (      69.799 eV)
   135     135       --        21.684 au  Pa            1.00      5 F:y             1
                        (     590.042 eV)
   136     136      2.000    -102.119 au  Cl            1.00      1 S               2
                        (   -2778.789 eV)
   137     137      2.000      -9.646 au  Cl            1.00      2 S               2
                        (    -262.471 eV)
   138     138      2.000      -0.854 au  Cl            1.00      3 S               2
                        (     -23.229 eV)
   139     139       --         0.235 au  Cl            1.00      4 S               2
                        (       6.405 eV)
   140     140       --         2.083 au  Cl            1.00      5 S               2
                        (      56.675 eV)
   141     141       --        12.853 au  Cl            1.00      6 S               2
                        (     349.740 eV)
   142     142       --       206.451 au  Cl            1.00      7 S               2
                        (    5617.823 eV)
   143     143      2.000      -7.311 au  Cl            1.00      1 P:x             2
                        (    -198.932 eV)
   144     144      1.667      -0.356 au  Cl            1.00      2 P:x             2
                        (      -9.674 eV)
   145     145       --         0.265 au  Cl            1.00      3 P:x             2
                        (       7.199 eV)
   146     146       --         2.208 au  Cl            1.00      4 P:x             2
                        (      60.081 eV)
   147     147       --        19.015 au  Cl            1.00      5 P:x             2
                        (     517.415 eV)
   148     148      2.000      -7.311 au  Cl            1.00      1 P:y             2
                        (    -198.932 eV)
   149     149      1.667      -0.356 au  Cl            1.00      2 P:y             2
                        (      -9.674 eV)
   150     150       --         0.265 au  Cl            1.00      3 P:y             2
                        (       7.199 eV)
   151     151       --         2.208 au  Cl            1.00      4 P:y             2
                        (      60.081 eV)
   152     152       --        19.015 au  Cl            1.00      5 P:y             2
                        (     517.415 eV)
   153     153      2.000      -7.311 au  Cl            1.00      1 P:z             2
                        (    -198.932 eV)
   154     154      1.667      -0.356 au  Cl            1.00      2 P:z             2
                        (      -9.674 eV)
   155     155       --         0.265 au  Cl            1.00      3 P:z             2
                        (       7.199 eV)
   156     156       --         2.208 au  Cl            1.00      4 P:z             2
                        (      60.081 eV)
   157     157       --        19.015 au  Cl            1.00      5 P:z             2
                        (     517.415 eV)
   158     158       --         0.444 au  Cl            1.00      1 D:z2            2
                        (      12.084 eV)
   159     159       --         0.444 au  Cl            1.00      1 D:x2-y2         2
                        (      12.084 eV)
   160     160       --         0.444 au  Cl            1.00      1 D:xy            2
                        (      12.084 eV)
   161     161       --         0.444 au  Cl            1.00      1 D:xz            2
                        (      12.084 eV)
   162     162       --         0.444 au  Cl            1.00      1 D:yz            2
                        (      12.084 eV)
   163     163       --         1.251 au  Cl            1.00      1 F:z3            2
                        (      34.044 eV)
   164     164       --         1.251 au  Cl            1.00      1 F:z             2
                        (      34.044 eV)
   165     165       --         1.251 au  Cl            1.00      1 F:xyz           2
                        (      34.044 eV)
   166     166       --         1.251 au  Cl            1.00      1 F:z2x           2
                        (      34.044 eV)
   167     167       --         1.251 au  Cl            1.00      1 F:z2y           2
                        (      34.044 eV)
   168     168       --         1.251 au  Cl            1.00      1 F:x             2
                        (      34.044 eV)
   169     169       --         1.251 au  Cl            1.00      1 F:y             2
                        (      34.044 eV)
   170     170      2.000    -102.119 au  Cl            1.00      1 S               3
                        (   -2778.789 eV)
   171     171      2.000      -9.646 au  Cl            1.00      2 S               3
                        (    -262.471 eV)
   172     172      2.000      -0.854 au  Cl            1.00      3 S               3
                        (     -23.229 eV)
   173     173       --         0.235 au  Cl            1.00      4 S               3
                        (       6.405 eV)
   174     174       --         2.083 au  Cl            1.00      5 S               3
                        (      56.675 eV)
   175     175       --        12.853 au  Cl            1.00      6 S               3
                        (     349.740 eV)
   176     176       --       206.451 au  Cl            1.00      7 S               3
                        (    5617.823 eV)
   177     177      2.000      -7.311 au  Cl            1.00      1 P:x             3
                        (    -198.932 eV)
   178     178      1.667      -0.356 au  Cl            1.00      2 P:x             3
                        (      -9.674 eV)
   179     179       --         0.265 au  Cl            1.00      3 P:x             3
                        (       7.199 eV)
   180     180       --         2.208 au  Cl            1.00      4 P:x             3
                        (      60.081 eV)
   181     181       --        19.015 au  Cl            1.00      5 P:x             3
                        (     517.415 eV)
   182     182      2.000      -7.311 au  Cl            1.00      1 P:y             3
                        (    -198.932 eV)
   183     183      1.667      -0.356 au  Cl            1.00      2 P:y             3
                        (      -9.674 eV)
   184     184       --         0.265 au  Cl            1.00      3 P:y             3
                        (       7.199 eV)
   185     185       --         2.208 au  Cl            1.00      4 P:y             3
                        (      60.081 eV)
   186     186       --        19.015 au  Cl            1.00      5 P:y             3
                        (     517.415 eV)
   187     187      2.000      -7.311 au  Cl            1.00      1 P:z             3
                        (    -198.932 eV)
   188     188      1.667      -0.356 au  Cl            1.00      2 P:z             3
                        (      -9.674 eV)
   189     189       --         0.265 au  Cl            1.00      3 P:z             3
                        (       7.199 eV)
   190     190       --         2.208 au  Cl            1.00      4 P:z             3
                        (      60.081 eV)
   191     191       --        19.015 au  Cl            1.00      5 P:z             3
                        (     517.415 eV)
   192     192       --         0.444 au  Cl            1.00      1 D:z2            3
                        (      12.084 eV)
   193     193       --         0.444 au  Cl            1.00      1 D:x2-y2         3
                        (      12.084 eV)
   194     194       --         0.444 au  Cl            1.00      1 D:xy            3
                        (      12.084 eV)
   195     195       --         0.444 au  Cl            1.00      1 D:xz            3
                        (      12.084 eV)
   196     196       --         0.444 au  Cl            1.00      1 D:yz            3
                        (      12.084 eV)
   197     197       --         1.251 au  Cl            1.00      1 F:z3            3
                        (      34.044 eV)
   198     198       --         1.251 au  Cl            1.00      1 F:z             3
                        (      34.044 eV)
   199     199       --         1.251 au  Cl            1.00      1 F:xyz           3
                        (      34.044 eV)
   200     200       --         1.251 au  Cl            1.00      1 F:z2x           3
                        (      34.044 eV)
   201     201       --         1.251 au  Cl            1.00      1 F:z2y           3
                        (      34.044 eV)
   202     202       --         1.251 au  Cl            1.00      1 F:x             3
                        (      34.044 eV)
   203     203       --         1.251 au  Cl            1.00      1 F:y             3
                        (      34.044 eV)
   204     204      2.000    -102.119 au  Cl            1.00      1 S               4
                        (   -2778.789 eV)
   205     205      2.000      -9.646 au  Cl            1.00      2 S               4
                        (    -262.471 eV)
   206     206      2.000      -0.854 au  Cl            1.00      3 S               4
                        (     -23.229 eV)
   207     207       --         0.235 au  Cl            1.00      4 S               4
                        (       6.405 eV)
   208     208       --         2.083 au  Cl            1.00      5 S               4
                        (      56.675 eV)
   209     209       --        12.853 au  Cl            1.00      6 S               4
                        (     349.740 eV)
   210     210       --       206.451 au  Cl            1.00      7 S               4
                        (    5617.823 eV)
   211     211      2.000      -7.311 au  Cl            1.00      1 P:x             4
                        (    -198.932 eV)
   212     212      1.667      -0.356 au  Cl            1.00      2 P:x             4
                        (      -9.674 eV)
   213     213       --         0.265 au  Cl            1.00      3 P:x             4
                        (       7.199 eV)
   214     214       --         2.208 au  Cl            1.00      4 P:x             4
                        (      60.081 eV)
   215     215       --        19.015 au  Cl            1.00      5 P:x             4
                        (     517.415 eV)
   216     216      2.000      -7.311 au  Cl            1.00      1 P:y             4
                        (    -198.932 eV)
   217     217      1.667      -0.356 au  Cl            1.00      2 P:y             4
                        (      -9.674 eV)
   218     218       --         0.265 au  Cl            1.00      3 P:y             4
                        (       7.199 eV)
   219     219       --         2.208 au  Cl            1.00      4 P:y             4
                        (      60.081 eV)
   220     220       --        19.015 au  Cl            1.00      5 P:y             4
                        (     517.415 eV)
   221     221      2.000      -7.311 au  Cl            1.00      1 P:z             4
                        (    -198.932 eV)
   222     222      1.667      -0.356 au  Cl            1.00      2 P:z             4
                        (      -9.674 eV)
   223     223       --         0.265 au  Cl            1.00      3 P:z             4
                        (       7.199 eV)
   224     224       --         2.208 au  Cl            1.00      4 P:z             4
                        (      60.081 eV)
   225     225       --        19.015 au  Cl            1.00      5 P:z             4
                        (     517.415 eV)
   226     226       --         0.444 au  Cl            1.00      1 D:z2            4
                        (      12.084 eV)
   227     227       --         0.444 au  Cl            1.00      1 D:x2-y2         4
                        (      12.084 eV)
   228     228       --         0.444 au  Cl            1.00      1 D:xy            4
                        (      12.084 eV)
   229     229       --         0.444 au  Cl            1.00      1 D:xz            4
                        (      12.084 eV)
   230     230       --         0.444 au  Cl            1.00      1 D:yz            4
                        (      12.084 eV)
   231     231       --         1.251 au  Cl            1.00      1 F:z3            4
                        (      34.044 eV)
   232     232       --         1.251 au  Cl            1.00      1 F:z             4
                        (      34.044 eV)
   233     233       --         1.251 au  Cl            1.00      1 F:xyz           4
                        (      34.044 eV)
   234     234       --         1.251 au  Cl            1.00      1 F:z2x           4
                        (      34.044 eV)
   235     235       --         1.251 au  Cl            1.00      1 F:z2y           4
                        (      34.044 eV)
   236     236       --         1.251 au  Cl            1.00      1 F:x             4
                        (      34.044 eV)
   237     237       --         1.251 au  Cl            1.00      1 F:y             4
                        (      34.044 eV)
   238     238      2.000    -102.119 au  Cl            1.00      1 S               5
                        (   -2778.789 eV)
   239     239      2.000      -9.646 au  Cl            1.00      2 S               5
                        (    -262.471 eV)
   240     240      2.000      -0.854 au  Cl            1.00      3 S               5
                        (     -23.229 eV)
   241     241       --         0.235 au  Cl            1.00      4 S               5
                        (       6.405 eV)
   242     242       --         2.083 au  Cl            1.00      5 S               5
                        (      56.675 eV)
   243     243       --        12.853 au  Cl            1.00      6 S               5
                        (     349.740 eV)
   244     244       --       206.451 au  Cl            1.00      7 S               5
                        (    5617.823 eV)
   245     245      2.000      -7.311 au  Cl            1.00      1 P:x             5
                        (    -198.932 eV)
   246     246      1.667      -0.356 au  Cl            1.00      2 P:x             5
                        (      -9.674 eV)
   247     247       --         0.265 au  Cl            1.00      3 P:x             5
                        (       7.199 eV)
   248     248       --         2.208 au  Cl            1.00      4 P:x             5
                        (      60.081 eV)
   249     249       --        19.015 au  Cl            1.00      5 P:x             5
                        (     517.415 eV)
   250     250      2.000      -7.311 au  Cl            1.00      1 P:y             5
                        (    -198.932 eV)
   251     251      1.667      -0.356 au  Cl            1.00      2 P:y             5
                        (      -9.674 eV)
   252     252       --         0.265 au  Cl            1.00      3 P:y             5
                        (       7.199 eV)
   253     253       --         2.208 au  Cl            1.00      4 P:y             5
                        (      60.081 eV)
   254     254       --        19.015 au  Cl            1.00      5 P:y             5
                        (     517.415 eV)
   255     255      2.000      -7.311 au  Cl            1.00      1 P:z             5
                        (    -198.932 eV)
   256     256      1.667      -0.356 au  Cl            1.00      2 P:z             5
                        (      -9.674 eV)
   257     257       --         0.265 au  Cl            1.00      3 P:z             5
                        (       7.199 eV)
   258     258       --         2.208 au  Cl            1.00      4 P:z             5
                        (      60.081 eV)
   259     259       --        19.015 au  Cl            1.00      5 P:z             5
                        (     517.415 eV)
   260     260       --         0.444 au  Cl            1.00      1 D:z2            5
                        (      12.084 eV)
   261     261       --         0.444 au  Cl            1.00      1 D:x2-y2         5
                        (      12.084 eV)
   262     262       --         0.444 au  Cl            1.00      1 D:xy            5
                        (      12.084 eV)
   263     263       --         0.444 au  Cl            1.00      1 D:xz            5
                        (      12.084 eV)
   264     264       --         0.444 au  Cl            1.00      1 D:yz            5
                        (      12.084 eV)
   265     265       --         1.251 au  Cl            1.00      1 F:z3            5
                        (      34.044 eV)
   266     266       --         1.251 au  Cl            1.00      1 F:z             5
                        (      34.044 eV)
   267     267       --         1.251 au  Cl            1.00      1 F:xyz           5
                        (      34.044 eV)
   268     268       --         1.251 au  Cl            1.00      1 F:z2x           5
                        (      34.044 eV)
   269     269       --         1.251 au  Cl            1.00      1 F:z2y           5
                        (      34.044 eV)
   270     270       --         1.251 au  Cl            1.00      1 F:x             5
                        (      34.044 eV)
   271     271       --         1.251 au  Cl            1.00      1 F:y             5
                        (      34.044 eV)
   272     272      2.000    -102.119 au  Cl            1.00      1 S               6
                        (   -2778.789 eV)
   273     273      2.000      -9.646 au  Cl            1.00      2 S               6
                        (    -262.471 eV)
   274     274      2.000      -0.854 au  Cl            1.00      3 S               6
                        (     -23.229 eV)
   275     275       --         0.235 au  Cl            1.00      4 S               6
                        (       6.405 eV)
   276     276       --         2.083 au  Cl            1.00      5 S               6
                        (      56.675 eV)
   277     277       --        12.853 au  Cl            1.00      6 S               6
                        (     349.740 eV)
   278     278       --       206.451 au  Cl            1.00      7 S               6
                        (    5617.823 eV)
   279     279      2.000      -7.311 au  Cl            1.00      1 P:x             6
                        (    -198.932 eV)
   280     280      1.667      -0.356 au  Cl            1.00      2 P:x             6
                        (      -9.674 eV)
   281     281       --         0.265 au  Cl            1.00      3 P:x             6
                        (       7.199 eV)
   282     282       --         2.208 au  Cl            1.00      4 P:x             6
                        (      60.081 eV)
   283     283       --        19.015 au  Cl            1.00      5 P:x             6
                        (     517.415 eV)
   284     284      2.000      -7.311 au  Cl            1.00      1 P:y             6
                        (    -198.932 eV)
   285     285      1.667      -0.356 au  Cl            1.00      2 P:y             6
                        (      -9.674 eV)
   286     286       --         0.265 au  Cl            1.00      3 P:y             6
                        (       7.199 eV)
   287     287       --         2.208 au  Cl            1.00      4 P:y             6
                        (      60.081 eV)
   288     288       --        19.015 au  Cl            1.00      5 P:y             6
                        (     517.415 eV)
   289     289      2.000      -7.311 au  Cl            1.00      1 P:z             6
                        (    -198.932 eV)
   290     290      1.667      -0.356 au  Cl            1.00      2 P:z             6
                        (      -9.674 eV)
   291     291       --         0.265 au  Cl            1.00      3 P:z             6
                        (       7.199 eV)
   292     292       --         2.208 au  Cl            1.00      4 P:z             6
                        (      60.081 eV)
   293     293       --        19.015 au  Cl            1.00      5 P:z             6
                        (     517.415 eV)
   294     294       --         0.444 au  Cl            1.00      1 D:z2            6
                        (      12.084 eV)
   295     295       --         0.444 au  Cl            1.00      1 D:x2-y2         6
                        (      12.084 eV)
   296     296       --         0.444 au  Cl            1.00      1 D:xy            6
                        (      12.084 eV)
   297     297       --         0.444 au  Cl            1.00      1 D:xz            6
                        (      12.084 eV)
   298     298       --         0.444 au  Cl            1.00      1 D:yz            6
                        (      12.084 eV)
   299     299       --         1.251 au  Cl            1.00      1 F:z3            6
                        (      34.044 eV)
   300     300       --         1.251 au  Cl            1.00      1 F:z             6
                        (      34.044 eV)
   301     301       --         1.251 au  Cl            1.00      1 F:xyz           6
                        (      34.044 eV)
   302     302       --         1.251 au  Cl            1.00      1 F:z2x           6
                        (      34.044 eV)
   303     303       --         1.251 au  Cl            1.00      1 F:z2y           6
                        (      34.044 eV)
   304     304       --         1.251 au  Cl            1.00      1 F:x             6
                        (      34.044 eV)
   305     305       --         1.251 au  Cl            1.00      1 F:y             6
                        (      34.044 eV)
   306     306      2.000     -19.396 au  O             1.00      1 S               7
                        (    -527.802 eV)
   307     307      2.000      -0.999 au  O             1.00      2 S               7
                        (     -27.198 eV)
   308     308       --         0.856 au  O             1.00      3 S               7
                        (      23.286 eV)
   309     309       --        13.669 au  O             1.00      4 S               7
                        (     371.949 eV)
   310     310       --       122.368 au  O             1.00      5 S               7
                        (    3329.795 eV)
   311     311      1.333      -0.366 au  O             1.00      1 P:x             7
                        (      -9.955 eV)
   312     312       --         0.397 au  O             1.00      2 P:x             7
                        (      10.811 eV)
   313     313       --         3.979 au  O             1.00      3 P:x             7
                        (     108.277 eV)
   314     314      1.333      -0.366 au  O             1.00      1 P:y             7
                        (      -9.955 eV)
   315     315       --         0.397 au  O             1.00      2 P:y             7
                        (      10.811 eV)
   316     316       --         3.979 au  O             1.00      3 P:y             7
                        (     108.277 eV)
   317     317      1.333      -0.366 au  O             1.00      1 P:z             7
                        (      -9.955 eV)
   318     318       --         0.397 au  O             1.00      2 P:z             7
                        (      10.811 eV)
   319     319       --         3.979 au  O             1.00      3 P:z             7
                        (     108.277 eV)
   320     320       --         1.128 au  O             1.00      1 D:z2            7
                        (      30.706 eV)
   321     321       --         1.128 au  O             1.00      1 D:x2-y2         7
                        (      30.706 eV)
   322     322       --         1.128 au  O             1.00      1 D:xy            7
                        (      30.706 eV)
   323     323       --         1.128 au  O             1.00      1 D:xz            7
                        (      30.706 eV)
   324     324       --         1.128 au  O             1.00      1 D:yz            7
                        (      30.706 eV)
   325     325       --         3.446 au  O             1.00      1 F:z3            7
                        (      93.771 eV)
   326     326       --         3.446 au  O             1.00      1 F:z             7
                        (      93.771 eV)
   327     327       --         3.446 au  O             1.00      1 F:xyz           7
                        (      93.771 eV)
   328     328       --         3.446 au  O             1.00      1 F:z2x           7
                        (      93.771 eV)
   329     329       --         3.446 au  O             1.00      1 F:z2y           7
                        (      93.771 eV)
   330     330       --         3.446 au  O             1.00      1 F:x             7
                        (      93.771 eV)
   331     331       --         3.446 au  O             1.00      1 F:y             7
                        (      93.771 eV)
   332     332      2.000     -19.396 au  O             1.00      1 S               8
                        (    -527.802 eV)
   333     333      2.000      -0.999 au  O             1.00      2 S               8
                        (     -27.198 eV)
   334     334       --         0.856 au  O             1.00      3 S               8
                        (      23.286 eV)
   335     335       --        13.669 au  O             1.00      4 S               8
                        (     371.949 eV)
   336     336       --       122.368 au  O             1.00      5 S               8
                        (    3329.795 eV)
   337     337      1.333      -0.366 au  O             1.00      1 P:x             8
                        (      -9.955 eV)
   338     338       --         0.397 au  O             1.00      2 P:x             8
                        (      10.811 eV)
   339     339       --         3.979 au  O             1.00      3 P:x             8
                        (     108.277 eV)
   340     340      1.333      -0.366 au  O             1.00      1 P:y             8
                        (      -9.955 eV)
   341     341       --         0.397 au  O             1.00      2 P:y             8
                        (      10.811 eV)
   342     342       --         3.979 au  O             1.00      3 P:y             8
                        (     108.277 eV)
   343     343      1.333      -0.366 au  O             1.00      1 P:z             8
                        (      -9.955 eV)
   344     344       --         0.397 au  O             1.00      2 P:z             8
                        (      10.811 eV)
   345     345       --         3.979 au  O             1.00      3 P:z             8
                        (     108.277 eV)
   346     346       --         1.128 au  O             1.00      1 D:z2            8
                        (      30.706 eV)
   347     347       --         1.128 au  O             1.00      1 D:x2-y2         8
                        (      30.706 eV)
   348     348       --         1.128 au  O             1.00      1 D:xy            8
                        (      30.706 eV)
   349     349       --         1.128 au  O             1.00      1 D:xz            8
                        (      30.706 eV)
   350     350       --         1.128 au  O             1.00      1 D:yz            8
                        (      30.706 eV)
   351     351       --         3.446 au  O             1.00      1 F:z3            8
                        (      93.771 eV)
   352     352       --         3.446 au  O             1.00      1 F:z             8
                        (      93.771 eV)
   353     353       --         3.446 au  O             1.00      1 F:xyz           8
                        (      93.771 eV)
   354     354       --         3.446 au  O             1.00      1 F:z2x           8
                        (      93.771 eV)
   355     355       --         3.446 au  O             1.00      1 F:z2y           8
                        (      93.771 eV)
   356     356       --         3.446 au  O             1.00      1 F:x             8
                        (      93.771 eV)
   357     357       --         3.446 au  O             1.00      1 F:y             8
                        (      93.771 eV)
   358     358      1.000      -0.242 au  H             1.00      1 S               9
                        (      -6.582 eV)
   359     359       --         0.113 au  H             1.00      2 S               9
                        (       3.073 eV)
   360     360       --         1.599 au  H             1.00      3 S               9
                        (      43.500 eV)
   361     361       --         0.445 au  H             1.00      1 P:x             9
                        (      12.103 eV)
   362     362       --         0.445 au  H             1.00      1 P:y             9
                        (      12.103 eV)
   363     363       --         0.445 au  H             1.00      1 P:z             9
                        (      12.103 eV)
   364     364       --         2.628 au  H             1.00      1 D:z2            9
                        (      71.505 eV)
   365     365       --         2.628 au  H             1.00      1 D:x2-y2         9
                        (      71.505 eV)
   366     366       --         2.628 au  H             1.00      1 D:xy            9
                        (      71.505 eV)
   367     367       --         2.628 au  H             1.00      1 D:xz            9
                        (      71.505 eV)
   368     368       --         2.628 au  H             1.00      1 D:yz            9
                        (      71.505 eV)
   369     369      1.000      -0.242 au  H             1.00      1 S              10
                        (      -6.582 eV)
   370     370       --         0.113 au  H             1.00      2 S              10
                        (       3.073 eV)
   371     371       --         1.599 au  H             1.00      3 S              10
                        (      43.500 eV)
   372     372       --         0.445 au  H             1.00      1 P:x            10
                        (      12.103 eV)
   373     373       --         0.445 au  H             1.00      1 P:y            10
                        (      12.103 eV)
   374     374       --         0.445 au  H             1.00      1 P:z            10
                        (      12.103 eV)
   375     375       --         2.628 au  H             1.00      1 D:z2           10
                        (      71.505 eV)
   376     376       --         2.628 au  H             1.00      1 D:x2-y2        10
                        (      71.505 eV)
   377     377       --         2.628 au  H             1.00      1 D:xy           10
                        (      71.505 eV)
   378     378       --         2.628 au  H             1.00      1 D:xz           10
                        (      71.505 eV)
   379     379       --         2.628 au  H             1.00      1 D:yz           10
                        (      71.505 eV)



 ================================
 (Slater-type)  F U N C T I O N S  ***  (Basis and Fit)  ***
 ================================
  

 Atom Type    1  (Pa)
 ==============

 Valence Basis Sets:  43
 -----------------------
   1 S 1028.000000
   1 S  240.000000
   1 S  107.000000
   2 S  131.500000
   2 S   46.500000
   3 S   59.100000
   3 S   25.450000
   4 S   15.550000
   4 S   11.050000
   5 S   10.200000
   5 S    7.100000
   6 S    4.950000
   6 S    3.250000
   7 S    2.350000
   7 S    1.550000
   7 S    1.020000
   2 P  240.000000
   2 P   84.000000
   2 P   43.600000
   3 P   24.750000
   3 P   17.850000
   4 P   17.650000
   4 P   12.100000
   5 P    8.500000
   5 P    5.900000
   6 P    4.400000
   6 P    3.000000
   6 P    2.100000
   3 D   33.750000
   3 D   21.750000
   4 D   15.300000
   4 D   10.450000
   5 D    7.150000
   5 D    4.600000
   6 D    3.000000
   6 D    1.700000
   6 D    0.980000
   4 F   17.100000
   4 F    9.350000
   5 F    5.850000
   5 F    3.150000
   5 F    1.550000
   7 P    1.550000

 Charge Fitting Sets (for the computation of the Coulomb Potential):  87
 -----------------------------------------------------------------------
   1 S 2056.000000
   1 S 1549.519000
   1 S 1167.806000
   1 S  880.126000
   1 S  663.313000
   1 S  499.911000
   1 S  376.761000
   1 S  283.949000
   1 S  214.000000
   1 S  127.280000
   2 S  140.220000
   2 S   93.850000
   3 S   92.230000
   3 S   65.710000
   4 S   61.900000
   4 S   45.910000
   5 S   42.420000
   5 S   32.370000
   6 S   29.610000
   6 S   23.090000
   7 S   21.000000
   7 S   16.670000
   8 S   15.120000
   8 S   12.170000
   9 S   11.020000
   9 S    8.970000
  10 S    8.120000
  10 S    6.680000
  11 S    6.050000
  11 S    5.020000
  12 S    4.550000
  12 S    3.800000
  12 S    3.180000
  13 S    2.880000
  13 S    2.420000
  13 S    2.040000
   2 P  150.600000
   3 P  125.870000
   4 P  103.260000
   5 P   84.350000
   6 P   68.960000
   7 P   56.560000
   7 P   40.600000
   8 P   33.430000
   8 P   24.490000
   9 P   20.250000
   9 P   15.090000
  10 P   12.530000
  10 P    9.470000
  11 P    7.900000
  11 P    6.040000
  12 P    5.060000
  12 P    3.910000
  13 P    3.290000
  13 P    2.570000
   3 D  128.750000
   4 D   91.090000
   5 D   65.210000
   6 D   47.270000
   7 D   34.690000
   8 D   25.740000
   9 D   19.290000
   9 D   13.060000
  10 D    9.880000
  10 D    6.820000
  11 D    5.210000
  11 D    3.650000
  12 D    2.810000
  12 D    2.000000
   4 F  116.350000
   5 F   72.360000
   6 F   46.140000
   7 F   30.070000
   8 F   19.970000
   9 F   13.480000
  10 F    9.240000
  10 F    5.790000
  11 F    4.020000
  11 F    2.570000
   5 G   52.950000
   6 G   31.380000
   7 G   19.110000
   8 G   11.920000
   9 G    7.580000
  10 G    4.910000
  11 G    3.230000
  11 G    1.960000

 Atom Type    2  (Cl)
 ==============

 Valence Basis Sets:  14
 -----------------------
   1 S   20.300000
   1 S   15.250000
   2 S    6.250000
   2 S    4.450000
   2 P    8.850000
   2 P    5.050000
   3 S    3.450000
   3 S    2.300000
   3 S    1.600000
   3 P    3.350000
   3 P    2.050000
   3 P    1.200000
   3 D    2.000000
   4 F    2.000000

 Charge Fitting Sets (for the computation of the Coulomb Potential):  30
 -----------------------------------------------------------------------
   1 S   40.600000
   1 S   24.830000
   2 S   28.080000
   2 S   19.200000
   3 S   19.250000
   3 S   13.970000
   3 S   10.130000
   4 S    9.710000
   4 S    7.320000
   4 S    5.510000
   5 S    5.170000
   5 S    4.000000
   5 S    3.100000
   5 S    2.400000
   2 P   29.150000
   3 P   21.740000
   4 P   16.160000
   4 P    9.600000
   5 P    7.180000
   5 P    4.480000
   5 P    2.800000
   3 D   21.950000
   4 D   15.750000
   4 D    9.040000
   5 D    6.550000
   5 D    3.960000
   5 D    2.400000
   4 F    5.000000
   4 F    3.000000
   5 G    3.500000

 Atom Type    3  (O)
 ==============

 Valence Basis Sets:  10
 -----------------------
   1 S    9.800000
   1 S    6.800000
   2 S    7.580000
   2 S    2.880000
   2 S    1.720000
   2 P    4.080000
   2 P    2.080000
   2 P    1.120000
   3 D    2.000000
   4 F    3.000000

 Charge Fitting Sets (for the computation of the Coulomb Potential):  22
 -----------------------------------------------------------------------
   1 S   19.600000
   2 S   22.600000
   2 S   15.680000
   2 S   10.890000
   2 S    7.560000
   3 S    7.690000
   3 S    5.650000
   3 S    4.150000
   3 S    3.050000
   3 S    2.240000
   2 P   12.860000
   2 P    7.680000
   3 P    6.780000
   3 P    4.390000
   3 P    2.840000
   3 D    8.800000
   3 D    5.580000
   3 D    3.530000
   3 D    2.240000
   4 F    6.200000
   4 F    3.700000
   5 G    4.500000

 Atom Type    4  (H)
 ==============

 Valence Basis Sets:   5
 -----------------------
   1 S    0.690000
   1 S    0.920000
   1 S    1.580000
   2 P    1.250000
   3 D    2.500000

 Charge Fitting Sets (for the computation of the Coulomb Potential):  11
 -----------------------------------------------------------------------
   1 S    3.160000
   1 S    2.090000
   1 S    1.380000
   2 S    1.500000
   2 P    4.000000
   2 P    2.650000
   2 P    1.750000
   3 D    4.000000
   3 D    2.500000
   4 F    3.000000
   5 G    4.000000


 BAS: List of all Elementary Cartesian Basis Functions
 =====================================================

 The numbering in the list below (to the right of the function characteristics) is referred
 to in print-outs of MO eigenvectors and Mulliken populations in the BAS representation
 (as contrasted to the SFO representation).

 Notes:
 1. The functions are characterized by a polynomial prefactor (powers of x,y,z and r) and
    an exponential decay factor alpha.
 2. Since the basis sets are specific for an atom TYPE, the individual functions occur on
    all atoms of that type.
 3. The word 'Core' in the left margin signals that it is a Core Function (CF) : not a
    degree of freedom in the valence set, but only used to ensure orthogonalization of
    the other valence basis functions on the frozen Core Orbitals.


 (power of) X  Y  Z  R     Alpha  on Atom
            ==========     =====     ==========

 Pa                                   1
                                  ---------------------------------------------------------------------------
            0  0  0  0  1028.000      1
            0  0  0  0   240.000      2
            0  0  0  0   107.000      3
            0  0  0  1   131.500      4
            0  0  0  1    46.500      5
            0  0  0  2    59.100      6
            0  0  0  2    25.450      7
            0  0  0  3    15.550      8
            0  0  0  3    11.050      9
            0  0  0  4    10.200     10
            0  0  0  4     7.100     11
            0  0  0  5     4.950     12
            0  0  0  5     3.250     13
            0  0  0  6     2.350     14
            0  0  0  6     1.550     15
            0  0  0  6     1.020     16
            1  0  0  0   240.000     17
            0  1  0  0   240.000     18
            0  0  1  0   240.000     19
            1  0  0  0    84.000     20
            0  1  0  0    84.000     21
            0  0  1  0    84.000     22
            1  0  0  0    43.600     23
            0  1  0  0    43.600     24
            0  0  1  0    43.600     25
            1  0  0  1    24.750     26
            0  1  0  1    24.750     27
            0  0  1  1    24.750     28
            1  0  0  1    17.850     29
            0  1  0  1    17.850     30
            0  0  1  1    17.850     31
            1  0  0  2    17.650     32
            0  1  0  2    17.650     33
            0  0  1  2    17.650     34
            1  0  0  2    12.100     35
            0  1  0  2    12.100     36
            0  0  1  2    12.100     37
            1  0  0  3     8.500     38
            0  1  0  3     8.500     39
            0  0  1  3     8.500     40
            1  0  0  3     5.900     41
            0  1  0  3     5.900     42
            0  0  1  3     5.900     43
            1  0  0  4     4.400     44
            0  1  0  4     4.400     45
            0  0  1  4     4.400     46
            1  0  0  4     3.000     47
            0  1  0  4     3.000     48
            0  0  1  4     3.000     49
            1  0  0  4     2.100     50
            0  1  0  4     2.100     51
            0  0  1  4     2.100     52
            2  0  0  0    33.750     53
            1  1  0  0    33.750     54
            1  0  1  0    33.750     55
            0  2  0  0    33.750     56
            0  1  1  0    33.750     57
            0  0  2  0    33.750     58
            2  0  0  0    21.750     59
            1  1  0  0    21.750     60
            1  0  1  0    21.750     61
            0  2  0  0    21.750     62
            0  1  1  0    21.750     63
            0  0  2  0    21.750     64
            2  0  0  1    15.300     65
            1  1  0  1    15.300     66
            1  0  1  1    15.300     67
            0  2  0  1    15.300     68
            0  1  1  1    15.300     69
            0  0  2  1    15.300     70
            2  0  0  1    10.450     71
            1  1  0  1    10.450     72
            1  0  1  1    10.450     73
            0  2  0  1    10.450     74
            0  1  1  1    10.450     75
            0  0  2  1    10.450     76
            2  0  0  2     7.150     77
            1  1  0  2     7.150     78
            1  0  1  2     7.150     79
            0  2  0  2     7.150     80
            0  1  1  2     7.150     81
            0  0  2  2     7.150     82
            2  0  0  2     4.600     83
            1  1  0  2     4.600     84
            1  0  1  2     4.600     85
            0  2  0  2     4.600     86
            0  1  1  2     4.600     87
            0  0  2  2     4.600     88
            2  0  0  3     3.000     89
            1  1  0  3     3.000     90
            1  0  1  3     3.000     91
            0  2  0  3     3.000     92
            0  1  1  3     3.000     93
            0  0  2  3     3.000     94
            2  0  0  3     1.700     95
            1  1  0  3     1.700     96
            1  0  1  3     1.700     97
            0  2  0  3     1.700     98
            0  1  1  3     1.700     99
            0  0  2  3     1.700    100
            2  0  0  3     0.980    101
            1  1  0  3     0.980    102
            1  0  1  3     0.980    103
            0  2  0  3     0.980    104
            0  1  1  3     0.980    105
            0  0  2  3     0.980    106
            3  0  0  0    17.100    107
            2  1  0  0    17.100    108
            2  0  1  0    17.100    109
            1  2  0  0    17.100    110
            1  1  1  0    17.100    111
            1  0  2  0    17.100    112
            0  3  0  0    17.100    113
            0  2  1  0    17.100    114
            0  1  2  0    17.100    115
            0  0  3  0    17.100    116
            3  0  0  0     9.350    117
            2  1  0  0     9.350    118
            2  0  1  0     9.350    119
            1  2  0  0     9.350    120
            1  1  1  0     9.350    121
            1  0  2  0     9.350    122
            0  3  0  0     9.350    123
            0  2  1  0     9.350    124
            0  1  2  0     9.350    125
            0  0  3  0     9.350    126
            3  0  0  1     5.850    127
            2  1  0  1     5.850    128
            2  0  1  1     5.850    129
            1  2  0  1     5.850    130
            1  1  1  1     5.850    131
            1  0  2  1     5.850    132
            0  3  0  1     5.850    133
            0  2  1  1     5.850    134
            0  1  2  1     5.850    135
            0  0  3  1     5.850    136
            3  0  0  1     3.150    137
            2  1  0  1     3.150    138
            2  0  1  1     3.150    139
            1  2  0  1     3.150    140
            1  1  1  1     3.150    141
            1  0  2  1     3.150    142
            0  3  0  1     3.150    143
            0  2  1  1     3.150    144
            0  1  2  1     3.150    145
            0  0  3  1     3.150    146
            3  0  0  1     1.550    147
            2  1  0  1     1.550    148
            2  0  1  1     1.550    149
            1  2  0  1     1.550    150
            1  1  1  1     1.550    151
            1  0  2  1     1.550    152
            0  3  0  1     1.550    153
            0  2  1  1     1.550    154
            0  1  2  1     1.550    155
            0  0  3  1     1.550    156
            1  0  0  5     1.550    157
            0  1  0  5     1.550    158
            0  0  1  5     1.550    159

 Cl                                   2    3    4    5    6
                                  ---------------------------------------------------------------------------
            0  0  0  0    20.300    160  198  236  274  312
            0  0  0  0    15.250    161  199  237  275  313
            0  0  0  1     6.250    162  200  238  276  314
            0  0  0  1     4.450    163  201  239  277  315
            1  0  0  0     8.850    164  202  240  278  316
            0  1  0  0     8.850    165  203  241  279  317
            0  0  1  0     8.850    166  204  242  280  318
            1  0  0  0     5.050    167  205  243  281  319
            0  1  0  0     5.050    168  206  244  282  320
            0  0  1  0     5.050    169  207  245  283  321
            0  0  0  2     3.450    170  208  246  284  322
            0  0  0  2     2.300    171  209  247  285  323
            0  0  0  2     1.600    172  210  248  286  324
            1  0  0  1     3.350    173  211  249  287  325
            0  1  0  1     3.350    174  212  250  288  326
            0  0  1  1     3.350    175  213  251  289  327
            1  0  0  1     2.050    176  214  252  290  328
            0  1  0  1     2.050    177  215  253  291  329
            0  0  1  1     2.050    178  216  254  292  330
            1  0  0  1     1.200    179  217  255  293  331
            0  1  0  1     1.200    180  218  256  294  332
            0  0  1  1     1.200    181  219  257  295  333
            2  0  0  0     2.000    182  220  258  296  334
            1  1  0  0     2.000    183  221  259  297  335
            1  0  1  0     2.000    184  222  260  298  336
            0  2  0  0     2.000    185  223  261  299  337
            0  1  1  0     2.000    186  224  262  300  338
            0  0  2  0     2.000    187  225  263  301  339
            3  0  0  0     2.000    188  226  264  302  340
            2  1  0  0     2.000    189  227  265  303  341
            2  0  1  0     2.000    190  228  266  304  342
            1  2  0  0     2.000    191  229  267  305  343
            1  1  1  0     2.000    192  230  268  306  344
            1  0  2  0     2.000    193  231  269  307  345
            0  3  0  0     2.000    194  232  270  308  346
            0  2  1  0     2.000    195  233  271  309  347
            0  1  2  0     2.000    196  234  272  310  348
            0  0  3  0     2.000    197  235  273  311  349

 O                                    7    8
                                  ---------------------------------------------------------------------------
            0  0  0  0     9.800    350  380
            0  0  0  0     6.800    351  381
            0  0  0  1     7.580    352  382
            0  0  0  1     2.880    353  383
            0  0  0  1     1.720    354  384
            1  0  0  0     4.080    355  385
            0  1  0  0     4.080    356  386
            0  0  1  0     4.080    357  387
            1  0  0  0     2.080    358  388
            0  1  0  0     2.080    359  389
            0  0  1  0     2.080    360  390
            1  0  0  0     1.120    361  391
            0  1  0  0     1.120    362  392
[...]
                                    6.00%     1 P:z            -9.955  1.33     7 O
                                    5.48%     1 P:x            -9.955  1.33     7 O
                                    4.32%     5 D:x2-y2         2.364  0.00     1 Pa
                                   -3.68%     3 P:z             7.199  0.00     6 Cl
                                    3.67%     4 D:yz           -1.800  0.20     1 Pa
                                   -3.59%     3 P:x             7.199  0.00     6 Cl
                                   -3.47%     3 P:x             7.199  0.00     5 Cl
                                   -3.41%     2 P:z            10.811  0.00     7 O
                                   -3.16%     2 P:x            10.811  0.00     7 O
                                   -3.15%     3 P:z             7.199  0.00     3 Cl
                                    2.79%     2 F:z2x          -1.040  0.29     1 Pa
                                    2.69%     5 D:yz            2.364  0.00     1 Pa
                                    2.16%     2 F:z3           -1.040  0.29     1 Pa
                                    2.12%     4 D:xy           -1.800  0.20     1 Pa
                                   -1.59%     3 P:z             7.199  0.00     2 Cl
                                    1.59%     2 P:x            -9.674  1.67     5 Cl
                                    1.56%     2 P:z            -9.674  1.67     3 Cl
                                    1.55%     6 P:x            -0.239  0.00     1 Pa
                                   -1.15%     3 P:x             7.199  0.00     3 Cl
                                   -1.11%     3 P:z             7.199  0.00     4 Cl
                                   -1.09%     3 P:x             7.199  0.00     4 Cl
                                    1.09%     2 P:x            -9.674  1.67     6 Cl
                                   -1.08%     3 P:x             7.199  0.00     2 Cl
                                    1.08%     2 P:z            -9.674  1.67     6 Cl
                                    1.03%     6 P:z            -0.239  0.00     1 Pa
      10.084  0.00   117 A         33.71%     5 D:xy            2.364  0.00     1 Pa
                                   32.05%     5 D:yz            2.364  0.00     1 Pa
                                    7.40%     5 D:x2-y2         2.364  0.00     1 Pa
                                   -4.82%     4 S               6.405  0.00     2 Cl
                                    4.59%     6 P:z            -0.239  0.00     1 Pa
                                    4.55%     6 P:x            -0.239  0.00     1 Pa
                                   -4.31%     4 S               6.405  0.00     4 Cl
                                    3.60%     5 D:xz            2.364  0.00     1 Pa
                                    3.26%     5 D:z2            2.364  0.00     1 Pa
                                    2.65%     1 S              -6.582  1.00     9 H
                                   -2.12%     4 D:xy           -1.800  0.20     1 Pa
                                    2.07%     2 P:y            -9.674  1.67     2 Cl
                                    1.68%     2 P:z            -9.674  1.67     4 Cl
                                    1.67%     1 S              -6.582  1.00    10 H
                                   -1.65%     3 P:y             7.199  0.00     3 Cl
                                   -1.24%     4 D:yz           -1.800  0.20     1 Pa
                                    1.18%     2 P:z            -9.674  1.67     5 Cl
                                    1.05%     2 P:x            -9.674  1.67     4 Cl
      10.666  0.00   118 A         53.53%     6 P:x            -0.239  0.00     1 Pa
                                   49.84%     6 P:z            -0.239  0.00     1 Pa
                                  -29.71%     4 S               6.405  0.00     6 Cl
                                   27.81%     7 S              -4.760  2.00     1 Pa
                                   -4.17%     3 P:z             7.199  0.00     4 Cl
                                   -3.19%     3 P:x             7.199  0.00     2 Cl
                                   -2.82%     3 P:x             7.199  0.00     5 Cl
                                    2.74%     8 S               0.919  0.00     1 Pa
                                    2.29%     3 P:x             7.199  0.00     6 Cl
                                   -2.11%     3 P:z             7.199  0.00     3 Cl
                                    1.78%     3 S             -23.229  2.00     6 Cl
                                   -1.55%     4 S               6.405  0.00     2 Cl
                                   -1.54%     4 S               6.405  0.00     4 Cl
                                   -1.37%     4 S               6.405  0.00     3 Cl
                                    1.35%     4 D:xy           -1.800  0.20     1 Pa
                                    1.34%     5 D:xy            2.364  0.00     1 Pa
                                   -1.30%     4 S               6.405  0.00     5 Cl
                                   -1.29%     3 S              23.286  0.00     7 O
                                    1.15%     2 P:z            -9.674  1.67     4 Cl
                                    1.14%     4 D:yz           -1.800  0.20     1 Pa
                                    1.10%     5 S              56.675  0.00     6 Cl
                                    1.07%     3 P:z             7.199  0.00     6 Cl
                                   -1.05%     9 S               9.238  0.00     1 Pa



 =======================================================================
 Electrostatic potential at the Nuclei due to electrons and other nuclei
 =======================================================================
  
         Atom                  Potential
         ----                  ---------
     1)   Pa                787.65293263
     2)   Cl                 65.20976228
     3)   Cl                 65.18774007
     4)   Cl                 65.20758920
     5)   Cl                 65.18979973
     6)   Cl                 65.16976678
     7)   O                  22.69264559
     8)   O                  22.57077650
     9)   H                   1.19493395
    10)   H                   1.19364879
 Mulliken charges used for AMS results%charges...


    =====================
     CALCULATION RESULTS
    =====================

Energy (hartree)            -2.53210902


--------------
Atomic charges
--------------
  Index   Atom    Charge
      1     Pa    1.6691
      2     Cl   -0.5725
      3     Cl   -0.6177
      4     Cl   -0.5689
      5     Cl   -0.6236
      6     Cl   -0.5090
      7      O   -0.7517
      8      O   -0.3706
      9      H    0.1731
     10      H    0.1718


Dipole moment vector    (Debye):    -1.41886919    0.36550163   -4.28881701
              magnitude (Debye):     4.53218850


-----------------------
Molecular orbitals info
-----------------------
n orbitals:              379
n spin:                    1

Note: only printing virtual orbitals with
      energy smaller than HOMO + 100. eV

HOMO (eV):               0.2662
LUMO (eV):               5.5851
HOMO-LUMO gap (eV):      5.3188

   Index   Energy (eV)    Occupation
     280       97.2945         0.000       
     279       96.1602         0.000       
     278       94.9078         0.000       
     277       93.5549         0.000       
     276       90.5305         0.000       
     275       90.1224         0.000       
     274       89.8830         0.000       
     273       88.9607         0.000       
     272       87.9923         0.000       
     271       87.5476         0.000       
     270       86.2647         0.000       
     269       86.0508         0.000       
     268       83.5258         0.000       
     267       82.5314         0.000       
     266       80.8714         0.000       
     265       80.8058         0.000       
     264       80.5429         0.000       
     263       80.3604         0.000       
     262       79.7544         0.000       
     261       78.6505         0.000       
     260       78.3035         0.000       
     259       78.1633         0.000       
     258       77.6101         0.000       
     257       77.2949         0.000       
     256       76.6258         0.000       
     255       76.3166         0.000       
     254       76.2521         0.000       
     253       75.3457         0.000       
     252       74.9386         0.000       
     251       74.3057         0.000       
     250       74.1321         0.000       
     249       73.2827         0.000       
     248       72.7152         0.000       
     247       69.8654         0.000       
     246       67.5712         0.000       
     245       67.3878         0.000       
     244       66.7199         0.000       
     243       63.7510         0.000       
     242       63.1225         0.000       
     241       61.3471         0.000       
     240       59.1570         0.000       
     239       58.1403         0.000       
     238       58.0488         0.000       
     237       55.6322         0.000       
     236       55.0741         0.000       
     235       50.8897         0.000       
     234       50.2144         0.000       
     233       50.0009         0.000       
     232       49.8980         0.000       
     231       48.8499         0.000       
     230       48.5529         0.000       
     229       48.2393         0.000       
     228       48.2004         0.000       
     227       47.8717         0.000       
     226       47.7478         0.000       
     225       47.1778         0.000       
     224       46.8822         0.000       
     223       46.7311         0.000       
     222       46.3173         0.000       
     221       46.2768         0.000       
     220       46.2042         0.000       
     219       45.9297         0.000       
     218       45.7458         0.000       
     217       45.5712         0.000       
     216       45.4675         0.000       
     215       45.2381         0.000       
     214       44.9139         0.000       
     213       44.8591         0.000       
     212       44.8380         0.000       
     211       44.7049         0.000       
     210       44.5359         0.000       
     209       44.3513         0.000       
     208       44.0766         0.000       
     207       44.0509         0.000       
     206       43.8107         0.000       
     205       43.5336         0.000       
     204       43.2693         0.000       
     203       42.9917         0.000       
     202       42.9654         0.000       
     201       42.6564         0.000       
     200       42.5666         0.000       
     199       42.3153         0.000       
     198       42.1642         0.000       
     197       41.3213         0.000       
     196       41.2545         0.000       
     195       40.3311         0.000       
     194       39.4114         0.000       
     193       38.1852         0.000       
     192       37.0015         0.000       
     191       36.4873         0.000       
     190       35.9967         0.000       
     189       35.3036         0.000       
     188       34.5175         0.000       
     187       33.7636         0.000       
     186       32.4297         0.000       
     185       32.3116         0.000       
     184       31.9619         0.000       
     183       31.5341         0.000       
     182       31.2803         0.000       
     181       30.8050         0.000       
     180       30.2391         0.000       
     179       29.7258         0.000       
     178       29.0170         0.000       
     177       28.9047         0.000       
     176       28.8574         0.000       
     175       28.6342         0.000       
     174       27.8036         0.000       
     173       27.3147         0.000       
     172       26.3035         0.000       
     171       26.1525         0.000       
     170       25.8886         0.000       
     169       25.3896         0.000       
     168       24.8339         0.000       
     167       24.7097         0.000       
     166       23.8225         0.000       
     165       23.7527         0.000       
     164       23.3550         0.000       
     163       23.2240         0.000       
     162       23.0780         0.000       
     161       22.7501         0.000       
     160       22.6610         0.000       
     159       22.5669         0.000       
     158       22.2607         0.000       
     157       22.0888         0.000       
     156       21.7763         0.000       
     155       21.6684         0.000       
     154       21.4194         0.000       
     153       20.9051         0.000       
     152       20.8213         0.000       
     151       20.6240         0.000       
     150       20.4546         0.000       
     149       20.0140         0.000       
     148       19.7791         0.000       
     147       19.5231         0.000       
     146       19.4010         0.000       
     145       19.1982         0.000       
     144       18.8989         0.000       
     143       18.8283         0.000       
     142       18.4533         0.000       
     141       18.2146         0.000       
     140       18.0708         0.000       
     139       17.6858         0.000       
     138       17.3556         0.000       
     137       17.2877         0.000       
     136       16.9140         0.000       
     135       16.7092         0.000       
     134       16.6796         0.000       
     133       16.5457         0.000       
     132       16.3955         0.000       
     131       15.9564         0.000       
     130       15.9047         0.000       
     129       15.6347         0.000       
     128       15.1178         0.000       
     127       15.0243         0.000       
     126       14.6195         0.000       
     125       14.3218         0.000       
     124       14.1749         0.000       
     123       13.7967         0.000       
     122       12.6244         0.000       
     121       12.2369         0.000       
     120       11.2694         0.000       
     119       11.1512         0.000       
     118       10.6661         0.000       
     117       10.0839         0.000       
     116        9.5440         0.000       
     115        9.4285         0.000       
     114        9.2397         0.000       
     113        8.9374         0.000       
     112        8.7211         0.000       
     111        8.7055         0.000       
     110        8.6638         0.000       
     109        8.4224         0.000       
     108        7.6240         0.000       
     107        7.0629         0.000       
     106        6.6505         0.000       
     105        6.0388         0.000       
     104        6.0141         0.000       
     103        5.9276         0.000       
     102        5.7503         0.000       
     101        5.6998         0.000       
     100        5.6971         0.000       
      99        5.5851         0.000 < LUMO
      98        0.2662         2.000 < HOMO
      97       -0.2946         2.000       
      96       -0.3506         2.000       
      95       -0.3914         2.000       
      94       -0.7136         2.000       
      93       -0.7342         2.000       
      92       -0.8211         2.000       
      91       -1.1134         2.000       
      90       -1.2754         2.000       
      89       -1.2982         2.000       
      88       -1.4972         2.000       
      87       -1.6556         2.000       
      86       -1.6770         2.000       
      85       -1.8245         2.000       
      84       -2.2770         2.000       
      83       -2.3767         2.000       
      82       -2.5840         2.000       
      81       -2.9230         2.000       
      80       -4.3267         2.000       
      79       -6.3634         2.000       
      78       -9.9375         2.000       
      77      -13.0835         2.000       
      76      -13.2384         2.000       
      75      -13.3091         2.000       
      74      -13.8539         2.000       
      73      -14.1168         2.000       
      72      -15.1519         2.000       
      71      -18.1654         2.000       
      70      -18.2886         2.000       
      69      -22.0991         2.000       
      68      -23.3502         2.000       
      67      -42.7439         2.000       
      66      -92.6514         2.000       
      65      -92.6987         2.000       
      64      -92.7043         2.000       
      63      -92.8090         2.000       
      62      -92.8139         2.000       
      61     -188.0494         2.000       
      60     -188.0574         2.000       
      59     -188.0943         2.000       
      58     -188.1098         2.000       
      57     -188.1174         2.000       
      56     -188.1536         2.000       
      55     -188.5967         2.000       
      54     -188.6031         2.000       
      53     -188.6326         2.000       
      52     -188.6554         2.000       
      51     -188.6610         2.000       
      50     -188.6904         2.000       
      49     -189.1611         2.000       
      48     -189.1669         2.000       
      47     -189.1958         2.000       
      46     -199.7915         2.000       
      45     -200.0760         2.000       
      44     -200.0843         2.000       
      43     -251.6171         2.000       
      42     -251.6770         2.000       
      41     -252.1610         2.000       
      40     -252.2192         2.000       
      39     -252.7263         2.000       
      38     -298.5090         2.000       
      37     -353.7606         2.000       
      36     -353.7953         2.000       
      35     -353.8016         2.000       
      34     -353.9316         2.000       
      33     -353.9402         2.000       
      32     -354.0730         2.000       
      31     -354.0748         2.000       
      30     -515.0027         2.000       
      29     -517.9652         2.000       
      28     -705.5814         2.000       
      27     -705.7326         2.000       
      26     -705.7391         2.000       
      25     -705.9207         2.000       
      24     -705.9346         2.000       
      23    -1033.8642         2.000       
      22    -1034.1865         2.000       
      21    -1034.1969         2.000       
      20    -1352.2646         2.000       
      19    -2767.8422         2.000       
      18    -2767.9011         2.000       
      17    -2768.3819         2.000       
      16    -2768.4377         2.000       
      15    -2768.9345         2.000       
      14    -3477.5119         2.000       
      13    -3477.5699         2.000       
      12    -3477.5723         2.000       
      11    -3477.6576         2.000       
      10    -3477.6625         2.000       
       9    -4339.7268         2.000       
       8    -4339.9070         2.000       
       7    -4339.9120         2.000       
       6    -5310.9170         2.000       
       5   -17553.9878         2.000       
       4   -17554.0149         2.000       
       3   -17554.0158         2.000       
       2   -21029.8297         2.000       
       1  -112692.3404         2.000       

AMS application finished. Exiting.
NORMAL TERMINATION
     Total cpu time:     446.55
  Total system time:     474.36
 Total elapsed time:     986.57
 WARNING: total system time is high compared to CPU time. 
 Make sure the machine is not oversubscribed and has enough memory, SCM_TMPDIR p
 oints to a fast file system, and the network is fast enough.
