

 Parallel Execution: Process Information
 ==============================================================================
 Rank   Node Name                              NodeID   MyNodeRank  NodeMaster
    0   u-0-5.local                               0          0          0
    1   u-0-5.local                               0          1         -1
    2   u-0-5.local                               0          2         -1
    3   u-0-5.local                               0          3         -1
    4   u-0-5.local                               1          0          1
    5   u-0-5.local                               1          1         -1
    6   u-0-5.local                               1          2         -1
    7   u-0-5.local                               1          3         -1
    8   u-0-5.local                               2          0          2
    9   u-0-5.local                               2          1         -1
   10   u-0-5.local                               2          2         -1
   11   u-0-5.local                               2          3         -1
   12   u-0-5.local                               3          0          3
   13   u-0-5.local                               3          1         -1
   14   u-0-5.local                               3          2         -1
   15   u-0-5.local                               3          3         -1
 ==============================================================================


May use up to 31228MB of RAM as shared memory on node 0
May use up to 31250MB of RAM as shared memory on node 1
May use up to 31250MB of RAM as shared memory on node 2
May use up to 31250MB of RAM as shared memory on node 3

 *******************************************************************************
 *                                                                             *
 *  --------------------------------                                           *
 *   Amsterdam Modeling Suite (AMS)              2023.104                      *
 *  --------------------------------                                           *
 *                                               r115785 2023-10-06            *
 *                                                                             *
 *                                                                             *
 *                              =================                              *
 *                              |               |                              *
 *                              |     A M S     |                              *
 *                              |               |                              *
 *                              =================                              *
 *                                                                             *
 *                                                                             *
 *   Online information and documentation:  https://www.scm.com/support/       *
 *   E-mail:  support@scm.com   info@scm.com                                   *
 *                                                                             *
 *   Scientific publications using AMS results must be properly referenced     *
 *   See the User Manuals (or the web site) for recommended citations          *
 *   The terms and conditions of the End User License Agreement apply to       *
 *   the use of AMS, https://www.scm.com/license-terms/                        *
 *                                                                             *
 **********************  x86_64_linux_intel / intelmpi  ************************
 
 Licensed to: Dr. Val?rie Vallet / Laboratoire PhLAM UMR 8523 / Villeneuve d'Ascq Cedex / FRANCE 2024-02-19 16:59:55
 SCM User ID: u10325
  
 AMS 2023.104  RunTime: Jun20-2024 12:13:47  ShM Nodes: 4  Procs: 16

 AMS jobname: pao_cl5_h2o.pbe0.tz2p.opt-freq-solvation-cs
 AMS jobid  : 262889427

 Start   directory: /home/shaaban/ams/PhD/geometries-exafs/pao-chloride/pao_cl5_h2o/PBE0/
 Results directory: /home/shaaban/ams/PhD/geometries-exafs/pao-chloride/pao_cl5_h2o/PBE0/pao_cl5_h2o.pbe0.tz2p.opt-freq-solvation-cs.results/
 Scratch directory: /state/partition2/shaaban/1021052.phlam-s-sakura/amstmp_pao_cl5_h2o.pbe0.tz2p.opt-freq-solvation-cs_kid0.262889427/


 Communication costs MPI_COMM_WORLD:     -1.767 usec per message,   0.0458 usec per 8-byte item
 Communication costs for intra-node:      0.376 usec per message,   0.0087 usec per 8-byte item

 RNG seed: 1759360023 222627782 -1431830084 1215385574 45078524 -1920614703 -312522671 -140861469



                     *************************************************************************
                     *  ADF 2023.104  RunTime: Jun20-2024 12:13:48  ShM Nodes: 4  Procs: 16  *
                     *************************************************************************
  

       ***************************
       *  GEOMETRY OPTIMIZATION  *
       ***************************

Optimization Method                    Quasi Newton
Optimization Coordinates               Delocalized Coordinates
Optimize lattice                       F
 
 ------------------------------------------------------
 Convergence criteria (Hartree,Angstrom)
 ------------------------------------------------------
 Maximum gradient               0.000100000000
 Maximum rms gradient           0.000066666667
 Maximum step allowed           0.001000000000
 Maximum rms step allowed       0.000666666667
 Maximum energy change allowe   0.000010000000
 Maximum stress energy allowe   0.000500000000
 
Initial model Hessian                  Automatic Hessian
 
------------------------------------
Quasi-Newton Optimizer Parameters
------------------------------------
Hessian Update Method                  BFGS
Maximum number of steps                  250
First GDIIS cycle                          0
Maximum GDIIS vectors                      0
Trust radius (bohr)                        0.200000
Trust radius varies                        T
Constraints converged at all steps         T
Use projector                              T
 
 Rigid motions settings for: old optimizer
 Atomic rotations (x,y,z):     T T T
 Atomic translations (x,y,z):  T T T
 Tolerance:                   1.000000000000000E-006
 
--------
Geometry
--------
Formula: H2Cl5O2Pa
Atoms
  Index Symbol   x (angstrom)   y (angstrom)   z (angstrom)
      1     Pa    -0.04461022     0.57268178     1.24926941       adf.R=2.200
      2     Cl     0.06597497     2.70185925    -0.43968641       adf.R=1.725
      3     Cl     0.04461022    -0.57268178     3.74780822       adf.R=1.725
      4     Cl     0.06597497     2.70185925     2.93822522       adf.R=1.725
      5     Cl     0.04461022    -0.57268178    -1.24926941       adf.R=1.725
      6     Cl     2.57640776     0.44453228     1.24926941       adf.R=1.725
      7      O    -1.87152393     0.59088282     1.24926941       adf.R=1.517
      8      O    -0.21388048    -1.98255363     1.24926941       adf.R=1.517
      9      H     0.11763704    -2.43032207     0.46327984       adf.R=1.350
     10      H     0.11763704    -2.43032207     2.03525897       adf.R=1.350
 
Total System Charge            -2.00000
Bonding info available!
 
 
----------------
ADF Engine Input
----------------
 
 Basis
 Type TZ2P
 Core None
 End
 XC
 Hybrid PBE0
 End
 Solvation
 Surf Delley
 Solv name=Water cav0=0.0 cav1=0.0067639
 Charged method=CONJ
 C-Mat POT
 SCF VAR ALL
 CSMRSP
 End
 NumericalQuality Good
 

 Title: *** (NO TITLE) ***

 Using automatic Hessian for delocalized coordinates.
 *** GO1_GOStep1 ***

 SOLVATION
-------------------------------------------

  The Delley construction of COSMO surface surface is calculated

       Division Level for Surface Triangles (NDIV)                  3
       Final Division Level for Triangles (NFDIV)                   1
       Radius of the Solvent (RSOL)                           1.93000 angstr
  Dielectric Constant (EPSL)                                 78.39000

       COSMO equation is solved iteratively-               conjugate-gradient

       Maximun of Iterations for Charges (NCIX)                  1000
       Criterion for Charge convergence (CCNV)                1.0E-08

  COSMO charges included variationally in SCF

       COSMO included at every SCF cycle

  Geometry-dependent empirical factor                         0.00000

  C-Matrix calculated in cspmtx

  In cspmtx, C-Matrix calculated using fitted potential

-------------------------------------------



 -------------------------------------------
  COSMO surface
  Area             =          618.480
  Volume           =         1143.782
  Number of Points =         1418
 -------------------------------------------



 ======================
 RI Hartree-Fock Scheme
 ======================
  
 Fit Set Quality     : GOOD
 Threshold Quality   : GOOD
 Integration Quality : GOOD
 Fit Generation Method : AUTO
 Response Quality    : DEFAULT
 Is Range Separated  :  F
 
 RIHartreeFock Dependency: number of modified vectors:           7
 cosmo_calcen: 0.5 (esolb+esolc) (Hartrees) =   -0.294301

 Solvation energy (screening term,uncorrected) =   -184.676474 kcal/mol

 Solvation energy (dispersion and cavitation terms) =      1.156509 kcal/mol
 Solvation Energy Contributions (Hartrees)
          esola   esolb+esolc
     0.29430066   -0.58860133
 esol last cycle   -0.29430066
  
 Hartree-Fock exchange energy:   -622.402562801471     
 cosmo_calcen: 0.5 (esolb+esolc) (Hartrees) =   -0.294301

 Solvation energy (screening term,uncorrected) =   -184.676472 kcal/mol

 Solvation energy (dispersion and cavitation terms) =      1.156509 kcal/mol
 Solvation Energy Contributions (Hartrees)
          esola   esolb+esolc
     0.29430066   -0.58860132
 esol last cycle   -0.29430066

 Energy gradients wrt nuclear displacements
 ==========================================

     Atom      Cartesian (a.u./angstrom)
                 X         Y         Z
 ----------------------------------------
     1 Pa    0.005228 -0.002435  0.000001
     2 Cl   -0.000995 -0.001237  0.000686
     3 Cl   -0.000779  0.001270 -0.003043
     4 Cl   -0.000990 -0.001219 -0.000687
     5 Cl   -0.000780  0.001270  0.003044
     6 Cl   -0.001676  0.000391 -0.000000
     7 O     0.001607  0.000147 -0.000000
     8 O     0.000030  0.000432  0.000000
     9 H    -0.000896  0.000841  0.000656
    10 H    -0.000751  0.000539 -0.000657
 ----------------------------------------
 Mulliken charges used for AMS results%charges...
 
----------------------------------------------------------------------
Geometry Convergence after Step   1       (Hartree/Angstrom,Angstrom)
----------------------------------------------------------------------
current energy                               -2.81406078 Hartree
energy change                      -2.81406078     0.00001000    F
constrained gradient max            0.00519943     0.00010000    F
constrained gradient rms            0.00153904     0.00006667    F
gradient max                        0.00519943
gradient rms                        0.00153904
cart. step max                      0.01123230     0.00100000    F
cart. step rms                      0.00473425     0.00066667    F
 
 
--------
Geometry
--------
Formula: H2Cl5O2Pa
Atoms
  Index Symbol   x (angstrom)   y (angstrom)   z (angstrom)
      1     Pa    -0.05515040     0.57352308     1.24907924       adf.R=2.200
      2     Cl     0.07338791     2.70355658    -0.43887357       adf.R=1.725
      3     Cl     0.04326024    -0.57249012     3.74912647       adf.R=1.725
      4     Cl     0.07333469     2.70302204     2.93770142       adf.R=1.725
      5     Cl     0.04298785    -0.57181364    -1.25128523       adf.R=1.725
      6     Cl     2.56641762     0.43710798     1.24896684       adf.R=1.725
      7      O    -1.88275623     0.59292734     1.24912746       adf.R=1.517
      8      O    -0.21008724    -1.98366554     1.24926284       adf.R=1.517
      9      H     0.12634705    -2.43003439     0.46380420       adf.R=1.350
     10      H     0.12509610    -2.42887929     2.03578439       adf.R=1.350
 
Total System Charge            -2.00000
Bonding info available!
 
 *** GO1_GOStep2 ***

 SOLVATION
-------------------------------------------

  The Delley construction of COSMO surface surface is calculated

       Division Level for Surface Triangles (NDIV)                  3
       Final Division Level for Triangles (NFDIV)                   1
       Radius of the Solvent (RSOL)                           1.93000 angstr
  Dielectric Constant (EPSL)                                 78.39000

       COSMO equation is solved iteratively-               conjugate-gradient

       Maximun of Iterations for Charges (NCIX)                  1000
       Criterion for Charge convergence (CCNV)                1.0E-08

  COSMO charges included variationally in SCF

       COSMO included at every SCF cycle

  Geometry-dependent empirical factor                         0.00000

  C-Matrix calculated in cspmtx

  In cspmtx, C-Matrix calculated using fitted potential

-------------------------------------------



 -------------------------------------------
  COSMO surface
  Area             =          618.467
  Volume           =         1143.581
  Number of Points =         1422
 -------------------------------------------



 ======================
 RI Hartree-Fock Scheme
 ======================
  
 Fit Set Quality     : GOOD
 Threshold Quality   : GOOD
 Integration Quality : GOOD
 Fit Generation Method : AUTO
 Response Quality    : DEFAULT
 Is Range Separated  :  F
 
 RIHartreeFock Dependency: number of modified vectors:           7
 cosmo_calcen: 0.5 (esolb+esolc) (Hartrees) =   -0.294096

 Solvation energy (screening term,uncorrected) =   -184.547843 kcal/mol

 Solvation energy (dispersion and cavitation terms) =      1.156486 kcal/mol
 Solvation Energy Contributions (Hartrees)
          esola   esolb+esolc
     0.29409568   -0.58819135
 esol last cycle   -0.29409568
  
 Hartree-Fock exchange energy:   -622.400249199241     
 cosmo_calcen: 0.5 (esolb+esolc) (Hartrees) =   -0.294096

 Solvation energy (screening term,uncorrected) =   -184.547845 kcal/mol

 Solvation energy (dispersion and cavitation terms) =      1.156486 kcal/mol
 Solvation Energy Contributions (Hartrees)
          esola   esolb+esolc
     0.29409568   -0.58819136
 esol last cycle   -0.29409568

 Energy gradients wrt nuclear displacements
 ==========================================

     Atom      Cartesian (a.u./angstrom)
                 X         Y         Z
 ----------------------------------------
     1 Pa    0.003892 -0.002182  0.000022
     2 Cl   -0.000562 -0.000887  0.000532
     3 Cl   -0.000365  0.001061 -0.002603
     4 Cl   -0.000571 -0.000905 -0.000535
     5 Cl   -0.000368  0.001083  0.002540
     6 Cl   -0.001361  0.000342  0.000000
     7 O     0.000636  0.000049 -0.000001
     8 O    -0.000558  0.001318  0.000221
     9 H    -0.000280 -0.000144 -0.000128
    10 H    -0.000463  0.000264 -0.000046
 ----------------------------------------
 Mulliken charges used for AMS results%charges...

 dE(predicted):    -0.49004E-04, dE(actual):    -0.65993E-04, Trust radius:    0.200000, all in a.u.
 
----------------------------------------------------------------------
Geometry Convergence after Step   2       (Hartree/Angstrom,Angstrom)
----------------------------------------------------------------------
current energy                               -2.81412677 Hartree
energy change                      -0.00006599     0.00001000    F
constrained gradient max            0.00386514     0.00010000    F
constrained gradient rms            0.00120172     0.00006667    F
gradient max                        0.00386514
gradient rms                        0.00120172
cart. step max                      0.02482389     0.00100000    F
cart. step rms                      0.01224054     0.00066667    F
 
 
--------
Geometry
--------
Formula: H2Cl5O2Pa
Atoms
  Index Symbol   x (angstrom)   y (angstrom)   z (angstrom)
      1     Pa    -0.07806722     0.57550305     1.24975369       adf.R=2.200
      2     Cl     0.09045016     2.70577038    -0.43771347       adf.R=1.725
      3     Cl     0.02977482    -0.56969123     3.75578950       adf.R=1.725
      4     Cl     0.09078133     2.70685339     2.93584225       adf.R=1.725
      5     Cl     0.03023133    -0.57225174    -1.25500584       adf.R=1.725
      6     Cl     2.54472704     0.41471532     1.24980050       adf.R=1.725
      7      O    -1.90663079     0.60010580     1.24974716       adf.R=1.517
      8      O    -0.19722509    -1.98636169     1.24860888       adf.R=1.517
      9      H     0.14887604    -2.42438691     0.46260739       adf.R=1.350
     10      H     0.14991999    -2.42700232     2.03326401       adf.R=1.350
 
Total System Charge            -2.00000
Bonding info available!
 
 *** GO1_GOStep3 ***

 SOLVATION
-------------------------------------------

  The Delley construction of COSMO surface surface is calculated

       Division Level for Surface Triangles (NDIV)                  3
       Final Division Level for Triangles (NFDIV)                   1
       Radius of the Solvent (RSOL)                           1.93000 angstr
  Dielectric Constant (EPSL)                                 78.39000

       COSMO equation is solved iteratively-               conjugate-gradient

       Maximun of Iterations for Charges (NCIX)                  1000
       Criterion for Charge convergence (CCNV)                1.0E-08

  COSMO charges included variationally in SCF

       COSMO included at every SCF cycle

  Geometry-dependent empirical factor                         0.00000

  C-Matrix calculated in cspmtx

  In cspmtx, C-Matrix calculated using fitted potential

-------------------------------------------



 -------------------------------------------
  COSMO surface
  Area             =          618.771
  Volume           =         1145.455
  Number of Points =         1423
 -------------------------------------------



 ======================
 RI Hartree-Fock Scheme
 ======================
  
 Fit Set Quality     : GOOD
 Threshold Quality   : GOOD
 Integration Quality : GOOD
 Fit Generation Method : AUTO
 Response Quality    : DEFAULT
 Is Range Separated  :  F
 
 RIHartreeFock Dependency: number of modified vectors:           7
 cosmo_calcen: 0.5 (esolb+esolc) (Hartrees) =   -0.293578

 Solvation energy (screening term,uncorrected) =   -184.223274 kcal/mol

 Solvation energy (dispersion and cavitation terms) =      1.157054 kcal/mol
 Solvation Energy Contributions (Hartrees)
          esola   esolb+esolc
     0.29357844   -0.58715689
 esol last cycle   -0.29357844
  
 Hartree-Fock exchange energy:   -622.395911899271     
 cosmo_calcen: 0.5 (esolb+esolc) (Hartrees) =   -0.293578

 Solvation energy (screening term,uncorrected) =   -184.223282 kcal/mol

 Solvation energy (dispersion and cavitation terms) =      1.157054 kcal/mol
 Solvation Energy Contributions (Hartrees)
          esola   esolb+esolc
     0.29357846   -0.58715691
 esol last cycle   -0.29357846

 Energy gradients wrt nuclear displacements
 ==========================================

     Atom      Cartesian (a.u./angstrom)
                 X         Y         Z
 ----------------------------------------
     1 Pa    0.001160 -0.001743 -0.000019
     2 Cl    0.000222 -0.000083  0.000169
     3 Cl    0.000413  0.000663 -0.001247
     4 Cl    0.000229 -0.000111 -0.000149
     5 Cl    0.000380  0.000485  0.001507
     6 Cl   -0.000570  0.000171 -0.000004
     7 O    -0.001246  0.000025 -0.000003
     8 O    -0.000675  0.001506 -0.000991
     9 H    -0.000229 -0.000097  0.000215
    10 H     0.000317 -0.000816  0.000523
 ----------------------------------------
 Mulliken charges used for AMS results%charges...

 dE(predicted):    -0.77275E-04, dE(actual):    -0.57155E-04, Trust radius:    0.200000, all in a.u.
 
----------------------------------------------------------------------
Geometry Convergence after Step   3       (Hartree/Angstrom,Angstrom)
----------------------------------------------------------------------
current energy                               -2.81418393 Hartree
energy change                      -0.00005716     0.00001000    F
constrained gradient max            0.00174923     0.00010000    F
constrained gradient rms            0.00073204     0.00006667    F
gradient max                        0.00174923
gradient rms                        0.00073204
cart. step max                      0.01218828     0.00100000    F
cart. step rms                      0.00525631     0.00066667    F
 
 
--------
Geometry
--------
Formula: H2Cl5O2Pa
Atoms
  Index Symbol   x (angstrom)   y (angstrom)   z (angstrom)
      1     Pa    -0.08281287     0.57617105     1.24919616       adf.R=2.200
      2     Cl     0.09534102     2.70699462    -0.43749985       adf.R=1.725
      3     Cl     0.01803479    -0.57107274     3.75691922       adf.R=1.725
      4     Cl     0.09561734     2.70712562     2.93573839       adf.R=1.725
      5     Cl     0.01804304    -0.56969332    -1.25917448       adf.R=1.725
      6     Cl     2.54025327     0.40454912     1.24904482       adf.R=1.725
      7      O    -1.91097114     0.60357369     1.24928955       adf.R=1.517
      8      O    -0.19045309    -1.98720879     1.24969506       adf.R=1.517
      9      H     0.16046977    -2.42336153     0.46450489       adf.R=1.350
     10      H     0.15931545    -2.42382367     2.03498031       adf.R=1.350
 
Total System Charge            -2.00000
Bonding info available!
 
 *** GO1_GOStep4 ***

 SOLVATION
-------------------------------------------

  The Delley construction of COSMO surface surface is calculated

       Division Level for Surface Triangles (NDIV)                  3
       Final Division Level for Triangles (NFDIV)                   1
       Radius of the Solvent (RSOL)                           1.93000 angstr
  Dielectric Constant (EPSL)                                 78.39000

       COSMO equation is solved iteratively-               conjugate-gradient

       Maximun of Iterations for Charges (NCIX)                  1000
       Criterion for Charge convergence (CCNV)                1.0E-08

  COSMO charges included variationally in SCF

       COSMO included at every SCF cycle

  Geometry-dependent empirical factor                         0.00000

  C-Matrix calculated in cspmtx

  In cspmtx, C-Matrix calculated using fitted potential

-------------------------------------------



 -------------------------------------------
  COSMO surface
  Area             =          619.362
  Volume           =         1146.210
  Number of Points =         1420
 -------------------------------------------



 ======================
 RI Hartree-Fock Scheme
 ======================
  
 Fit Set Quality     : GOOD
 Threshold Quality   : GOOD
 Integration Quality : GOOD
 Fit Generation Method : AUTO
 Response Quality    : DEFAULT
 Is Range Separated  :  F
 
 RIHartreeFock Dependency: number of modified vectors:           7
 cosmo_calcen: 0.5 (esolb+esolc) (Hartrees) =   -0.293406

 Solvation energy (screening term,uncorrected) =   -184.115183 kcal/mol

 Solvation energy (dispersion and cavitation terms) =      1.158159 kcal/mol
 Solvation Energy Contributions (Hartrees)
          esola   esolb+esolc
     0.29340619   -0.58681238
 esol last cycle   -0.29340619
  
 Hartree-Fock exchange energy:   -622.395013522519     
 cosmo_calcen: 0.5 (esolb+esolc) (Hartrees) =   -0.293406

 Solvation energy (screening term,uncorrected) =   -184.115191 kcal/mol

 Solvation energy (dispersion and cavitation terms) =      1.158159 kcal/mol
 Solvation Energy Contributions (Hartrees)
          esola   esolb+esolc
     0.29340620   -0.58681240
 esol last cycle   -0.29340620

 Energy gradients wrt nuclear displacements
 ==========================================

     Atom      Cartesian (a.u./angstrom)
                 X         Y         Z
 ----------------------------------------
     1 Pa    0.000209 -0.001546 -0.000003
     2 Cl    0.000308  0.000085  0.000019
     3 Cl    0.000430  0.000344 -0.000987
     4 Cl    0.000301  0.000183 -0.000040
     5 Cl    0.000437  0.000488  0.000844
     6 Cl   -0.000200  0.000088 -0.000003
     7 O    -0.001036  0.000024  0.000001
     8 O    -0.000512  0.001063  0.000367
     9 H     0.000149 -0.000306 -0.000124
    10 H    -0.000087 -0.000423 -0.000074
 ----------------------------------------
 Mulliken charges used for AMS results%charges...

 dE(predicted):    -0.11555E-04, dE(actual):    -0.11958E-04, Trust radius:    0.200000, all in a.u.
 
----------------------------------------------------------------------
Geometry Convergence after Step   4       (Hartree/Angstrom,Angstrom)
----------------------------------------------------------------------
current energy                               -2.81419589 Hartree
energy change                      -0.00001196     0.00001000    F
constrained gradient max            0.00155150     0.00010000    F
constrained gradient rms            0.00051655     0.00006667    F
gradient max                        0.00155150
gradient rms                        0.00051655
cart. step max                      0.03235482     0.00100000    F
cart. step rms                      0.01222935     0.00066667    F
 
 
--------
Geometry
--------
Formula: H2Cl5O2Pa
Atoms
  Index Symbol   x (angstrom)   y (angstrom)   z (angstrom)
      1     Pa    -0.08945732     0.57764372     1.24877257       adf.R=2.200
      2     Cl     0.10419249     2.70876388    -0.43729361       adf.R=1.725
      3     Cl    -0.01432003    -0.56976867     3.76240929       adf.R=1.725
      4     Cl     0.10513875     2.70722806     2.93658246       adf.R=1.725
      5     Cl    -0.01368897    -0.56874683    -1.26531771       adf.R=1.725
      6     Cl     2.53368201     0.38165713     1.24883409       adf.R=1.725
      7      O    -1.91629442     0.61187360     1.24889591       adf.R=1.517
      8      O    -0.17407076    -1.98862410     1.24954944       adf.R=1.517
      9      H     0.18385097    -2.42003666     0.46478212       adf.R=1.350
     10      H     0.18380487    -2.41673607     2.03547951       adf.R=1.350
 
Total System Charge            -2.00000
Bonding info available!
 
 *** GO1_GOStep5 ***

 SOLVATION
-------------------------------------------

  The Delley construction of COSMO surface surface is calculated

       Division Level for Surface Triangles (NDIV)                  3
       Final Division Level for Triangles (NFDIV)                   1
       Radius of the Solvent (RSOL)                           1.93000 angstr
  Dielectric Constant (EPSL)                                 78.39000

       COSMO equation is solved iteratively-               conjugate-gradient

       Maximun of Iterations for Charges (NCIX)                  1000
       Criterion for Charge convergence (CCNV)                1.0E-08

  COSMO charges included variationally in SCF

       COSMO included at every SCF cycle

  Geometry-dependent empirical factor                         0.00000

  C-Matrix calculated in cspmtx

  In cspmtx, C-Matrix calculated using fitted potential

-------------------------------------------



 -------------------------------------------
  COSMO surface
  Area             =          620.103
  Volume           =         1146.850
  Number of Points =         1425
 -------------------------------------------



 ======================
 RI Hartree-Fock Scheme
 ======================
  
 Fit Set Quality     : GOOD
 Threshold Quality   : GOOD
 Integration Quality : GOOD
 Fit Generation Method : AUTO
 Response Quality    : DEFAULT
 Is Range Separated  :  F
 
 RIHartreeFock Dependency: number of modified vectors:           7
 cosmo_calcen: 0.5 (esolb+esolc) (Hartrees) =   -0.293052

 Solvation energy (screening term,uncorrected) =   -183.893038 kcal/mol

 Solvation energy (dispersion and cavitation terms) =      1.159544 kcal/mol
 Solvation Energy Contributions (Hartrees)
          esola   esolb+esolc
     0.29305218   -0.58610436
 esol last cycle   -0.29305218
  
 Hartree-Fock exchange energy:   -622.393523408479     
 cosmo_calcen: 0.5 (esolb+esolc) (Hartrees) =   -0.293052

 Solvation energy (screening term,uncorrected) =   -183.893045 kcal/mol

 Solvation energy (dispersion and cavitation terms) =      1.159544 kcal/mol
 Solvation Energy Contributions (Hartrees)
          esola   esolb+esolc
     0.29305219   -0.58610438
 esol last cycle   -0.29305219

 Energy gradients wrt nuclear displacements
 ==========================================

     Atom      Cartesian (a.u./angstrom)
                 X         Y         Z
 ----------------------------------------
     1 Pa   -0.001378 -0.001054  0.000015
     2 Cl    0.000287  0.000567 -0.000243
     3 Cl    0.000242  0.000099  0.000011
     4 Cl    0.000284  0.000510  0.000246
     5 Cl    0.000264  0.000119 -0.000138
     6 Cl    0.000567 -0.000124  0.000005
     7 O     0.000003  0.000031  0.000024
     8 O    -0.000205  0.000051  0.000935
     9 H     0.000203 -0.000517 -0.000341
    10 H    -0.000267  0.000318 -0.000514
 ----------------------------------------
 Mulliken charges used for AMS results%charges...

 dE(predicted):    -0.21618E-04, dE(actual):    -0.79771E-05, Trust radius:    0.200000, all in a.u.
 
----------------------------------------------------------------------
Geometry Convergence after Step   5       (Hartree/Angstrom,Angstrom)
----------------------------------------------------------------------
current energy                               -2.81420386 Hartree
energy change                      -0.00000798     0.00001000    T
constrained gradient max            0.00140120     0.00010000    F
constrained gradient rms            0.00045137     0.00006667    F
gradient max                        0.00140120
gradient rms                        0.00045137
cart. step max                      0.00953836     0.00100000    F
cart. step rms                      0.00305028     0.00066667    F
 
 
--------
Geometry
--------
Formula: H2Cl5O2Pa
Atoms
  Index Symbol   x (angstrom)   y (angstrom)   z (angstrom)
      1     Pa    -0.08846380     0.57814760     1.24888642       adf.R=2.200
      2     Cl     0.10527895     2.70807001    -0.43818468       adf.R=1.725
      3     Cl    -0.02367752    -0.57021913     3.76312793       adf.R=1.725
      4     Cl     0.10608232     2.70688983     2.93730286       adf.R=1.725
      5     Cl    -0.02322732    -0.56918439    -1.26578592       adf.R=1.725
      6     Cl     2.53423404     0.37765394     1.24884761       adf.R=1.725
      7      O    -1.91497717     0.61422061     1.24887804       adf.R=1.517
      8      O    -0.17005661    -1.98840211     1.24942919       adf.R=1.517
      9      H     0.18896699    -2.41815887     0.46455210       adf.R=1.350
     10      H     0.18867772    -2.41576344     2.03564054       adf.R=1.350
 
Total System Charge            -2.00000
Bonding info available!
 
 *** GO1_GOStep6 ***

 SOLVATION
-------------------------------------------

  The Delley construction of COSMO surface surface is calculated

       Division Level for Surface Triangles (NDIV)                  3
       Final Division Level for Triangles (NFDIV)                   1
       Radius of the Solvent (RSOL)                           1.93000 angstr
  Dielectric Constant (EPSL)                                 78.39000

       COSMO equation is solved iteratively-               conjugate-gradient

       Maximun of Iterations for Charges (NCIX)                  1000
       Criterion for Charge convergence (CCNV)                1.0E-08

  COSMO charges included variationally in SCF

       COSMO included at every SCF cycle

  Geometry-dependent empirical factor                         0.00000

  C-Matrix calculated in cspmtx

  In cspmtx, C-Matrix calculated using fitted potential

-------------------------------------------



 -------------------------------------------
  COSMO surface
  Area             =          619.505
  Volume           =         1146.236
  Number of Points =         1420
 -------------------------------------------



 ======================
 RI Hartree-Fock Scheme
 ======================
  
 Fit Set Quality     : GOOD
 Threshold Quality   : GOOD
 Integration Quality : GOOD
 Fit Generation Method : AUTO
 Response Quality    : DEFAULT
 Is Range Separated  :  F
 
 RIHartreeFock Dependency: number of modified vectors:           7
 cosmo_calcen: 0.5 (esolb+esolc) (Hartrees) =   -0.292994

 Solvation energy (screening term,uncorrected) =   -183.856482 kcal/mol

 Solvation energy (dispersion and cavitation terms) =      1.158426 kcal/mol
 Solvation Energy Contributions (Hartrees)
          esola   esolb+esolc
     0.29299392   -0.58598785
 esol last cycle   -0.29299392
  
 Hartree-Fock exchange energy:   -622.393588684837     
 cosmo_calcen: 0.5 (esolb+esolc) (Hartrees) =   -0.292994

 Solvation energy (screening term,uncorrected) =   -183.856491 kcal/mol

 Solvation energy (dispersion and cavitation terms) =      1.158426 kcal/mol
 Solvation Energy Contributions (Hartrees)
          esola   esolb+esolc
     0.29299394   -0.58598787
 esol last cycle   -0.29299394

 Energy gradients wrt nuclear displacements
 ==========================================

     Atom      Cartesian (a.u./angstrom)
                 X         Y         Z
 ----------------------------------------
     1 Pa   -0.001089 -0.000856  0.000032
     2 Cl    0.000166  0.000529 -0.000292
     3 Cl    0.000066  0.000033  0.000090
     4 Cl    0.000167  0.000493  0.000291
     5 Cl    0.000081  0.000064 -0.000193
     6 Cl    0.000619 -0.000150  0.000001
     7 O     0.000282  0.000032 -0.000002
     8 O    -0.000171 -0.000141  0.000228
     9 H     0.000018 -0.000214 -0.000041
    10 H    -0.000140  0.000209 -0.000114
 ----------------------------------------
 Mulliken charges used for AMS results%charges...

 dE(predicted):    -0.36308E-05, dE(actual):    -0.50608E-05, Trust radius:    0.200000, all in a.u.
 
----------------------------------------------------------------------
Geometry Convergence after Step   6       (Hartree/Angstrom,Angstrom)
----------------------------------------------------------------------
current energy                               -2.81420892 Hartree
energy change                      -0.00000506     0.00001000    T
constrained gradient max            0.00111261     0.00010000    F
constrained gradient rms            0.00033609     0.00006667    F
gradient max                        0.00111261
gradient rms                        0.00033609
cart. step max                      0.00499463     0.00100000    F
cart. step rms                      0.00165610     0.00066667    F
 
 
--------
Geometry
--------
Formula: H2Cl5O2Pa
Atoms
  Index Symbol   x (angstrom)   y (angstrom)   z (angstrom)
      1     Pa    -0.08750775     0.57861023     1.24925832       adf.R=2.200
      2     Cl     0.10591775     2.70666953    -0.43918704       adf.R=1.725
      3     Cl    -0.02855470    -0.57042307     3.76347263       adf.R=1.725
      4     Cl     0.10646074     2.70653357     2.93781129       adf.R=1.725
      5     Cl    -0.02822196    -0.57059735    -1.26478122       adf.R=1.725
      6     Cl     2.53453958     0.37669639     1.24924975       adf.R=1.725
      7      O    -1.91402584     0.61585510     1.24921852       adf.R=1.517
      8      O    -0.16792307    -1.98788828     1.24909489       adf.R=1.517
      9      H     0.19113590    -2.41620647     0.46359441       adf.R=1.350
     10      H     0.19101694    -2.41599561     2.03496252       adf.R=1.350
 
Total System Charge            -2.00000
Bonding info available!
 
 *** GO1_GOStep7 ***

 SOLVATION
-------------------------------------------

  The Delley construction of COSMO surface surface is calculated

       Division Level for Surface Triangles (NDIV)                  3
       Final Division Level for Triangles (NFDIV)                   1
       Radius of the Solvent (RSOL)                           1.93000 angstr
  Dielectric Constant (EPSL)                                 78.39000

       COSMO equation is solved iteratively-               conjugate-gradient

       Maximun of Iterations for Charges (NCIX)                  1000
       Criterion for Charge convergence (CCNV)                1.0E-08

  COSMO charges included variationally in SCF

       COSMO included at every SCF cycle

  Geometry-dependent empirical factor                         0.00000

  C-Matrix calculated in cspmtx

  In cspmtx, C-Matrix calculated using fitted potential

-------------------------------------------



 -------------------------------------------
  COSMO surface
  Area             =          620.592
  Volume           =         1148.213
  Number of Points =         1423
 -------------------------------------------



 ======================
 RI Hartree-Fock Scheme
 ======================
  
 Fit Set Quality     : GOOD
 Threshold Quality   : GOOD
 Integration Quality : GOOD
 Fit Generation Method : AUTO
 Response Quality    : DEFAULT
 Is Range Separated  :  F
 
 RIHartreeFock Dependency: number of modified vectors:           7
 cosmo_calcen: 0.5 (esolb+esolc) (Hartrees) =   -0.292991

 Solvation energy (screening term,uncorrected) =   -183.854504 kcal/mol

 Solvation energy (dispersion and cavitation terms) =      1.160460 kcal/mol
 Solvation Energy Contributions (Hartrees)
          esola   esolb+esolc
     0.29299077   -0.58598154
 esol last cycle   -0.29299077
  
 Hartree-Fock exchange energy:   -622.393813843774     
 cosmo_calcen: 0.5 (esolb+esolc) (Hartrees) =   -0.292991

 Solvation energy (screening term,uncorrected) =   -183.854512 kcal/mol

 Solvation energy (dispersion and cavitation terms) =      1.160460 kcal/mol
 Solvation Energy Contributions (Hartrees)
          esola   esolb+esolc
     0.29299078   -0.58598157
 esol last cycle   -0.29299078

 Energy gradients wrt nuclear displacements
 ==========================================

     Atom      Cartesian (a.u./angstrom)
                 X         Y         Z
 ----------------------------------------
     1 Pa   -0.000523 -0.000671 -0.000001
     2 Cl    0.000089  0.000424 -0.000285
     3 Cl   -0.000030  0.000033  0.000060
     4 Cl    0.000088  0.000391  0.000288
     5 Cl   -0.000028  0.000004 -0.000018
     6 Cl    0.000452 -0.000134 -0.000001
     7 O     0.000275  0.000041 -0.000002
     8 O    -0.000190 -0.000161 -0.000282
     9 H    -0.000031 -0.000057  0.000114
    10 H    -0.000102  0.000130  0.000127
 ----------------------------------------
 Mulliken charges used for AMS results%charges...

 dE(predicted):    -0.16076E-05, dE(actual):    -0.14866E-04, Trust radius:    0.200000, all in a.u.
 
----------------------------------------------------------------------
Geometry Convergence after Step   7       (Hartree/Angstrom,Angstrom)
----------------------------------------------------------------------
current energy                               -2.81422379 Hartree
energy change                      -0.00001487     0.00001000    F
constrained gradient max            0.00067742     0.00010000    F
constrained gradient rms            0.00023742     0.00006667    F
gradient max                        0.00067742
gradient rms                        0.00023742
cart. step max                      0.00477562     0.00100000    F
cart. step rms                      0.00176188     0.00066667    F
 
 
--------
Geometry
--------
Formula: H2Cl5O2Pa
Atoms
  Index Symbol   x (angstrom)   y (angstrom)   z (angstrom)
      1     Pa    -0.08773521     0.57912764     1.24970854       adf.R=2.200
      2     Cl     0.10742111     2.70490514    -0.44011735       adf.R=1.725
      3     Cl    -0.03333032    -0.57064204     3.76392612       adf.R=1.725
      4     Cl     0.10765289     2.70622586     2.93790495       adf.R=1.725
      5     Cl    -0.03270871    -0.57172708    -1.26391263       adf.R=1.725
      6     Cl     2.53353899     0.37546147     1.24995688       adf.R=1.725
      7      O    -1.91437230     0.61774768     1.24955223       adf.R=1.517
      8      O    -0.16538939    -1.98739458     1.24924173       adf.R=1.517
      9      H     0.19278765    -2.41393219     0.46243849       adf.R=1.350
     10      H     0.19497288    -2.41651783     2.03399511       adf.R=1.350
 
Total System Charge            -2.00000
Bonding info available!
 
 *** GO1_GOStep8 ***

 SOLVATION
-------------------------------------------

  The Delley construction of COSMO surface surface is calculated

       Division Level for Surface Triangles (NDIV)                  3
       Final Division Level for Triangles (NFDIV)                   1
       Radius of the Solvent (RSOL)                           1.93000 angstr
  Dielectric Constant (EPSL)                                 78.39000

       COSMO equation is solved iteratively-               conjugate-gradient

       Maximun of Iterations for Charges (NCIX)                  1000
       Criterion for Charge convergence (CCNV)                1.0E-08

  COSMO charges included variationally in SCF

       COSMO included at every SCF cycle

  Geometry-dependent empirical factor                         0.00000

  C-Matrix calculated in cspmtx

  In cspmtx, C-Matrix calculated using fitted potential

-------------------------------------------



 -------------------------------------------
  COSMO surface
  Area             =          620.717
  Volume           =         1148.506
  Number of Points =         1422
 -------------------------------------------



 ======================
 RI Hartree-Fock Scheme
 ======================
  
 Fit Set Quality     : GOOD
 Threshold Quality   : GOOD
 Integration Quality : GOOD
 Fit Generation Method : AUTO
 Response Quality    : DEFAULT
 Is Range Separated  :  F
 
 RIHartreeFock Dependency: number of modified vectors:           7
 cosmo_calcen: 0.5 (esolb+esolc) (Hartrees) =   -0.292965

 Solvation energy (screening term,uncorrected) =   -183.838133 kcal/mol

 Solvation energy (dispersion and cavitation terms) =      1.160694 kcal/mol
 Solvation Energy Contributions (Hartrees)
          esola   esolb+esolc
     0.29296468   -0.58592936
 esol last cycle   -0.29296468
  
 Hartree-Fock exchange energy:   -622.394037309851     
 cosmo_calcen: 0.5 (esolb+esolc) (Hartrees) =   -0.292965

 Solvation energy (screening term,uncorrected) =   -183.838141 kcal/mol

 Solvation energy (dispersion and cavitation terms) =      1.160694 kcal/mol
 Solvation Energy Contributions (Hartrees)
          esola   esolb+esolc
     0.29296470   -0.58592939
 esol last cycle   -0.29296470

 Energy gradients wrt nuclear displacements
 ==========================================

     Atom      Cartesian (a.u./angstrom)
                 X         Y         Z
 ----------------------------------------
     1 Pa   -0.000095 -0.000425 -0.000048
     2 Cl    0.000057  0.000251 -0.000247
     3 Cl   -0.000085 -0.000005  0.000036
     4 Cl    0.000069  0.000293  0.000245
     5 Cl   -0.000080 -0.000019  0.000094
     6 Cl    0.000277 -0.000113 -0.000001
     7 O     0.000157  0.000052 -0.000002
     8 O    -0.000180 -0.000127 -0.000555
     9 H    -0.000280  0.000345  0.000193
    10 H     0.000159 -0.000253  0.000285
 ----------------------------------------
 Mulliken charges used for AMS results%charges...
 
----------------------------------------------------------------------
Geometry Convergence after Step   8       (Hartree/Angstrom,Angstrom)
----------------------------------------------------------------------
current energy                               -2.81422375 Hartree
energy change                       0.00000004     0.00001000    T
constrained gradient max            0.00054882     0.00010000    F
constrained gradient rms            0.00020965     0.00006667    F
gradient max                        0.00054882
gradient rms                        0.00020965
cart. step max                      0.00064911     0.00100000    T
cart. step rms                      0.00033424     0.00066667    T
 
 
--------
Geometry
--------
Formula: H2Cl5O2Pa
Atoms
  Index Symbol   x (angstrom)   y (angstrom)   z (angstrom)
      1     Pa    -0.08817078     0.57918469     1.24955677       adf.R=2.200
      2     Cl     0.10783692     2.70483188    -0.43987814       adf.R=1.725
      3     Cl    -0.03288968    -0.57094194     3.76355423       adf.R=1.725
      4     Cl     0.10795755     2.70577161     2.93783841       adf.R=1.725
      5     Cl    -0.03256947    -0.57139183    -1.26418618       adf.R=1.725
      6     Cl     2.53288988     0.37570606     1.24973197       adf.R=1.725
      7      O    -1.91490126     0.61795453     1.24943418       adf.R=1.517
      8      O    -0.16518649    -1.98730611     1.24939887       adf.R=1.517
      9      H     0.19330657    -2.41434124     0.46286570       adf.R=1.350
     10      H     0.19456434    -2.41621360     2.03437825       adf.R=1.350
 
Total System Charge            -2.00000
Bonding info available!
 
 *** GO1_GOStep9 ***

 SOLVATION
-------------------------------------------

  The Delley construction of COSMO surface surface is calculated

       Division Level for Surface Triangles (NDIV)                  3
       Final Division Level for Triangles (NFDIV)                   1
       Radius of the Solvent (RSOL)                           1.93000 angstr
  Dielectric Constant (EPSL)                                 78.39000

       COSMO equation is solved iteratively-               conjugate-gradient

       Maximun of Iterations for Charges (NCIX)                  1000
       Criterion for Charge convergence (CCNV)                1.0E-08

  COSMO charges included variationally in SCF

       COSMO included at every SCF cycle

  Geometry-dependent empirical factor                         0.00000

  C-Matrix calculated in cspmtx

  In cspmtx, C-Matrix calculated using fitted potential

-------------------------------------------



 -------------------------------------------
  COSMO surface
  Area             =          620.701
  Volume           =         1148.492
  Number of Points =         1422
 -------------------------------------------



 ======================
 RI Hartree-Fock Scheme
 ======================
  
 Fit Set Quality     : GOOD
 Threshold Quality   : GOOD
 Integration Quality : GOOD
 Fit Generation Method : AUTO
 Response Quality    : DEFAULT
 Is Range Separated  :  F
 
 RIHartreeFock Dependency: number of modified vectors:           7
 cosmo_calcen: 0.5 (esolb+esolc) (Hartrees) =   -0.292972

 Solvation energy (screening term,uncorrected) =   -183.842504 kcal/mol

 Solvation energy (dispersion and cavitation terms) =      1.160664 kcal/mol
 Solvation Energy Contributions (Hartrees)
          esola   esolb+esolc
     0.29297165   -0.58594330
 esol last cycle   -0.29297165
  
 Hartree-Fock exchange energy:   -622.394149272278     
 cosmo_calcen: 0.5 (esolb+esolc) (Hartrees) =   -0.292972

 Solvation energy (screening term,uncorrected) =   -183.842512 kcal/mol

 Solvation energy (dispersion and cavitation terms) =      1.160664 kcal/mol
 Solvation Energy Contributions (Hartrees)
          esola   esolb+esolc
     0.29297166   -0.58594332
 esol last cycle   -0.29297166

 Energy gradients wrt nuclear displacements
 ==========================================

     Atom      Cartesian (a.u./angstrom)
                 X         Y         Z
 ----------------------------------------
     1 Pa   -0.000046 -0.000369 -0.000034
     2 Cl    0.000077  0.000193 -0.000205
     3 Cl   -0.000057 -0.000013 -0.000025
     4 Cl    0.000088  0.000242  0.000199
     5 Cl   -0.000058  0.000012  0.000076
     6 Cl    0.000193 -0.000100  0.000001
     7 O     0.000084  0.000061 -0.000004
     8 O    -0.000153 -0.000108 -0.000085
     9 H    -0.000184  0.000232  0.000014
    10 H     0.000057 -0.000151  0.000063
 ----------------------------------------
 Mulliken charges used for AMS results%charges...
 
----------------------------------------------------------------------
Geometry Convergence after Step   9       (Hartree/Angstrom,Angstrom)
----------------------------------------------------------------------
current energy                               -2.81422384 Hartree
energy change                      -0.00000010     0.00001000    T
constrained gradient max            0.00037519     0.00010000    F
constrained gradient rms            0.00013016     0.00006667    F
gradient max                        0.00037519
gradient rms                        0.00013016
cart. step max                      0.00263190     0.00100000    F
cart. step rms                      0.00109552     0.00066667    F
 
 
--------
Geometry
--------
Formula: H2Cl5O2Pa
Atoms
  Index Symbol   x (angstrom)   y (angstrom)   z (angstrom)
      1     Pa    -0.08955205     0.57938206     1.24904012       adf.R=2.200
      2     Cl     0.10913896     2.70496549    -0.43875066       adf.R=1.725
      3     Cl    -0.03243191    -0.57124735     3.76287411       adf.R=1.725
      4     Cl     0.10907867     2.70429959     2.93764227       adf.R=1.725
      5     Cl    -0.03304197    -0.57056430    -1.26516997       adf.R=1.725
      6     Cl     2.53088188     0.37568803     1.24881925       adf.R=1.725
      7      O    -1.91648528     0.61866703     1.24910761       adf.R=1.517
      8      O    -0.16406643    -1.98708466     1.24930791       adf.R=1.517
      9      H     0.19593847    -2.41584826     0.46420291       adf.R=1.350
     10      H     0.19337725    -2.41500359     2.03562051       adf.R=1.350
 
Total System Charge            -2.00000
Bonding info available!
 
 *** GO1_GOStep10 ***

 SOLVATION
-------------------------------------------

  The Delley construction of COSMO surface surface is calculated

       Division Level for Surface Triangles (NDIV)                  3
       Final Division Level for Triangles (NFDIV)                   1
       Radius of the Solvent (RSOL)                           1.93000 angstr
  Dielectric Constant (EPSL)                                 78.39000

       COSMO equation is solved iteratively-               conjugate-gradient

       Maximun of Iterations for Charges (NCIX)                  1000
       Criterion for Charge convergence (CCNV)                1.0E-08

  COSMO charges included variationally in SCF

       COSMO included at every SCF cycle

  Geometry-dependent empirical factor                         0.00000

  C-Matrix calculated in cspmtx

  In cspmtx, C-Matrix calculated using fitted potential

-------------------------------------------



 -------------------------------------------
  COSMO surface
  Area             =          620.646
  Volume           =         1148.066
  Number of Points =         1422
 -------------------------------------------



 ======================
 RI Hartree-Fock Scheme
 ======================
  
 Fit Set Quality     : GOOD
 Threshold Quality   : GOOD
 Integration Quality : GOOD
 Fit Generation Method : AUTO
 Response Quality    : DEFAULT
 Is Range Separated  :  F
 
 RIHartreeFock Dependency: number of modified vectors:           7
 cosmo_calcen: 0.5 (esolb+esolc) (Hartrees) =   -0.292990

 Solvation energy (screening term,uncorrected) =   -183.853765 kcal/mol

 Solvation energy (dispersion and cavitation terms) =      1.160560 kcal/mol
 Solvation Energy Contributions (Hartrees)
          esola   esolb+esolc
     0.29298959   -0.58597919
 esol last cycle   -0.29298959
  
 Hartree-Fock exchange energy:   -622.394454459914     
 cosmo_calcen: 0.5 (esolb+esolc) (Hartrees) =   -0.292990

 Solvation energy (screening term,uncorrected) =   -183.853773 kcal/mol

 Solvation energy (dispersion and cavitation terms) =      1.160560 kcal/mol
 Solvation Energy Contributions (Hartrees)
          esola   esolb+esolc
     0.29298961   -0.58597921
 esol last cycle   -0.29298961

 Energy gradients wrt nuclear displacements
 ==========================================

     Atom      Cartesian (a.u./angstrom)
                 X         Y         Z
 ----------------------------------------
     1 Pa    0.000020 -0.000172  0.000020
     2 Cl    0.000137  0.000074 -0.000056
     3 Cl    0.000017  0.000019 -0.000112
     4 Cl    0.000128  0.000045  0.000054
     5 Cl    0.000001  0.000044  0.000028
     6 Cl   -0.000033 -0.000072  0.000002
     7 O    -0.000050  0.000085 -0.000005
     8 O    -0.000083 -0.000061  0.000612
     9 H     0.000168 -0.000272 -0.000254
    10 H    -0.000303  0.000310 -0.000289
 ----------------------------------------
 Mulliken charges used for AMS results%charges...

 dE(predicted):    -0.10434E-05, dE(actual):     0.13353E-05, Trust radius:    0.020000, all in a.u.
 
----------------------------------------------------------------------
Geometry Convergence after Step  10       (Hartree/Angstrom,Angstrom)
----------------------------------------------------------------------
current energy                               -2.81422251 Hartree
energy change                       0.00000134     0.00001000    T
constrained gradient max            0.00060607     0.00010000    F
constrained gradient rms            0.00017144     0.00006667    F
gradient max                        0.00060607
gradient rms                        0.00017144
cart. step max                      0.00086839     0.00100000    T
cart. step rms                      0.00041013     0.00066667    T
 
 
--------
Geometry
--------
Formula: H2Cl5O2Pa
Atoms
  Index Symbol   x (angstrom)   y (angstrom)   z (angstrom)
      1     Pa    -0.08917311     0.57942013     1.24926606       adf.R=2.200
      2     Cl     0.10893788     2.70464890    -0.43903120       adf.R=1.725
      3     Cl    -0.03322117    -0.57098554     3.76326749       adf.R=1.725
      4     Cl     0.10892927     2.70464935     2.93755901       adf.R=1.725
      5     Cl    -0.03342527    -0.57095043    -1.26478133       adf.R=1.725
      6     Cl     2.53127515     0.37555551     1.24918067       adf.R=1.725
      7      O    -1.91606471     0.61870327     1.24928037       adf.R=1.517
      8      O    -0.16392593    -1.98703436     1.24926958       adf.R=1.517
      9      H     0.19525984    -2.41517436     0.46360048       adf.R=1.350
     10      H     0.19424564    -2.41557843     2.03508294       adf.R=1.350
 
Total System Charge            -2.00000
Bonding info available!
 
 *** GO1_GOStep11 ***

 SOLVATION
-------------------------------------------

  The Delley construction of COSMO surface surface is calculated

       Division Level for Surface Triangles (NDIV)                  3
       Final Division Level for Triangles (NFDIV)                   1
       Radius of the Solvent (RSOL)                           1.93000 angstr
  Dielectric Constant (EPSL)                                 78.39000

       COSMO equation is solved iteratively-               conjugate-gradient

       Maximun of Iterations for Charges (NCIX)                  1000
       Criterion for Charge convergence (CCNV)                1.0E-08

  COSMO charges included variationally in SCF

       COSMO included at every SCF cycle

  Geometry-dependent empirical factor                         0.00000

  C-Matrix calculated in cspmtx

  In cspmtx, C-Matrix calculated using fitted potential

-------------------------------------------



 -------------------------------------------
  COSMO surface
  Area             =          620.649
  Volume           =         1148.054
  Number of Points =         1422
 -------------------------------------------



 ======================
 RI Hartree-Fock Scheme
 ======================
  
 Fit Set Quality     : GOOD
 Threshold Quality   : GOOD
 Integration Quality : GOOD
 Fit Generation Method : AUTO
 Response Quality    : DEFAULT
 Is Range Separated  :  F
 
 RIHartreeFock Dependency: number of modified vectors:           7
 cosmo_calcen: 0.5 (esolb+esolc) (Hartrees) =   -0.292988

 Solvation energy (screening term,uncorrected) =   -183.852700 kcal/mol

 Solvation energy (dispersion and cavitation terms) =      1.160565 kcal/mol
 Solvation Energy Contributions (Hartrees)
          esola   esolb+esolc
     0.29298790   -0.58597579
 esol last cycle   -0.29298790
  
 Hartree-Fock exchange energy:   -622.394451992801     
 cosmo_calcen: 0.5 (esolb+esolc) (Hartrees) =   -0.292988

 Solvation energy (screening term,uncorrected) =   -183.852709 kcal/mol

 Solvation energy (dispersion and cavitation terms) =      1.160565 kcal/mol
 Solvation Energy Contributions (Hartrees)
          esola   esolb+esolc
     0.29298791   -0.58597582
 esol last cycle   -0.29298791

 Energy gradients wrt nuclear displacements
 ==========================================

     Atom      Cartesian (a.u./angstrom)
                 X         Y         Z
 ----------------------------------------
     1 Pa    0.000062 -0.000162 -0.000003
     2 Cl    0.000111  0.000052 -0.000063
     3 Cl   -0.000012  0.000022 -0.000075
     4 Cl    0.000115  0.000074  0.000062
     5 Cl   -0.000019  0.000029  0.000065
     6 Cl   -0.000016 -0.000077  0.000000
     7 O    -0.000009  0.000081 -0.000002
     8 O    -0.000099 -0.000060  0.000141
     9 H     0.000070  0.000075 -0.000068
    10 H    -0.000203 -0.000033 -0.000057
 ----------------------------------------
 Mulliken charges used for AMS results%charges...
 
----------------------------------------------------------------------
Geometry Convergence after Step  11       (Hartree/Angstrom,Angstrom)
----------------------------------------------------------------------
current energy                               -2.81422314 Hartree
energy change                      -0.00000063     0.00001000    T
constrained gradient max            0.00016877     0.00010000    F
constrained gradient rms            0.00006763     0.00006667    F
gradient max                        0.00016877
gradient rms                        0.00006763
cart. step max                      0.00183256     0.00100000    F
cart. step rms                      0.00051749     0.00066667    T
 
 
--------
Geometry
--------
Formula: H2Cl5O2Pa
Atoms
  Index Symbol   x (angstrom)   y (angstrom)   z (angstrom)
      1     Pa    -0.08878871     0.57946882     1.24934083       adf.R=2.200
      2     Cl     0.10867335     2.70458862    -0.43904784       adf.R=1.725
      3     Cl    -0.03396989    -0.57079446     3.76351630       adf.R=1.725
      4     Cl     0.10870834     2.70481083     2.93744476       adf.R=1.725
      5     Cl    -0.03337928    -0.57103116    -1.26472146       adf.R=1.725
      6     Cl     2.53167961     0.37546216     1.24957530       adf.R=1.725
      7      O    -1.91563436     0.61862780     1.24926230       adf.R=1.517
      8      O    -0.16377969    -1.98695801     1.24944680       adf.R=1.517
      9      H     0.19342728    -2.41537777     0.46317367       adf.R=1.350
     10      H     0.19590094    -2.41554277     2.03470341       adf.R=1.350
 
Total System Charge            -2.00000
Bonding info available!
 
 *** GO1_GOStep12 ***

 SOLVATION
-------------------------------------------

  The Delley construction of COSMO surface surface is calculated

       Division Level for Surface Triangles (NDIV)                  3
       Final Division Level for Triangles (NFDIV)                   1
       Radius of the Solvent (RSOL)                           1.93000 angstr
  Dielectric Constant (EPSL)                                 78.39000

       COSMO equation is solved iteratively-               conjugate-gradient

       Maximun of Iterations for Charges (NCIX)                  1000
       Criterion for Charge convergence (CCNV)                1.0E-08

  COSMO charges included variationally in SCF

       COSMO included at every SCF cycle

  Geometry-dependent empirical factor                         0.00000

  C-Matrix calculated in cspmtx

  In cspmtx, C-Matrix calculated using fitted potential

-------------------------------------------



 -------------------------------------------
  COSMO surface
  Area             =          620.649
  Volume           =         1148.416
  Number of Points =         1422
 -------------------------------------------



 ======================
 RI Hartree-Fock Scheme
 ======================
  
 Fit Set Quality     : GOOD
 Threshold Quality   : GOOD
 Integration Quality : GOOD
 Fit Generation Method : AUTO
 Response Quality    : DEFAULT
 Is Range Separated  :  F
 
 RIHartreeFock Dependency: number of modified vectors:           7
 cosmo_calcen: 0.5 (esolb+esolc) (Hartrees) =   -0.292991

 Solvation energy (screening term,uncorrected) =   -183.854896 kcal/mol

 Solvation energy (dispersion and cavitation terms) =      1.160566 kcal/mol
 Solvation Energy Contributions (Hartrees)
          esola   esolb+esolc
     0.29299140   -0.58598279
 esol last cycle   -0.29299140
  
 Hartree-Fock exchange energy:   -622.394473041439     
 cosmo_calcen: 0.5 (esolb+esolc) (Hartrees) =   -0.292991

 Solvation energy (screening term,uncorrected) =   -183.854904 kcal/mol

 Solvation energy (dispersion and cavitation terms) =      1.160566 kcal/mol
 Solvation Energy Contributions (Hartrees)
          esola   esolb+esolc
     0.29299141   -0.58598282
 esol last cycle   -0.29299141

 Energy gradients wrt nuclear displacements
 ==========================================

     Atom      Cartesian (a.u./angstrom)
                 X         Y         Z
 ----------------------------------------
     1 Pa    0.000080 -0.000133 -0.000012
     2 Cl    0.000089  0.000046 -0.000052
     3 Cl   -0.000044  0.000022 -0.000053
     4 Cl    0.000097  0.000067  0.000051
     5 Cl   -0.000027  0.000026  0.000066
     6 Cl   -0.000002 -0.000083 -0.000000
     7 O     0.000048  0.000077  0.000006
     8 O    -0.000105 -0.000062 -0.000270
     9 H    -0.000274  0.000143  0.000108
    10 H     0.000137 -0.000101  0.000157
 ----------------------------------------
 Mulliken charges used for AMS results%charges...
 
----------------------------------------------------------------------
Geometry Convergence after Step  12       (Hartree/Angstrom,Angstrom)
----------------------------------------------------------------------
current energy                               -2.81422354 Hartree
energy change                      -0.00000040     0.00001000    T
constrained gradient max            0.00027035     0.00010000    F
constrained gradient rms            0.00009573     0.00006667    F
gradient max                        0.00027035
gradient rms                        0.00009573
cart. step max                      0.00095905     0.00100000    T
cart. step rms                      0.00030587     0.00066667    T
 
 
--------
Geometry
--------
Formula: H2Cl5O2Pa
Atoms
  Index Symbol   x (angstrom)   y (angstrom)   z (angstrom)
      1     Pa    -0.08903971     0.57949661     1.24925540       adf.R=2.200
      2     Cl     0.10888397     2.70463628    -0.43884931       adf.R=1.725
      3     Cl    -0.03353338    -0.57083152     3.76340302       adf.R=1.725
      4     Cl     0.10884578     2.70457367     2.93742732       adf.R=1.725
      5     Cl    -0.03340731    -0.57089374    -1.26488155       adf.R=1.725
      6     Cl     2.53135268     0.37553809     1.24930626       adf.R=1.725
      7      O    -1.91592605     0.61868494     1.24923171       adf.R=1.517
      8      O    -0.16368071    -1.98691978     1.24933139       adf.R=1.517
      9      H     0.19438633    -2.41555579     0.46348546       adf.R=1.350
     10      H     0.19495599    -2.41547471     2.03498437       adf.R=1.350
 
Total System Charge            -2.00000
Bonding info available!
 
 *** GO1_GOStep13 ***

 SOLVATION
-------------------------------------------

  The Delley construction of COSMO surface surface is calculated

       Division Level for Surface Triangles (NDIV)                  3
       Final Division Level for Triangles (NFDIV)                   1
       Radius of the Solvent (RSOL)                           1.93000 angstr
  Dielectric Constant (EPSL)                                 78.39000

       COSMO equation is solved iteratively-               conjugate-gradient

       Maximun of Iterations for Charges (NCIX)                  1000
       Criterion for Charge convergence (CCNV)                1.0E-08

  COSMO charges included variationally in SCF

       COSMO included at every SCF cycle

  Geometry-dependent empirical factor                         0.00000

  C-Matrix calculated in cspmtx

  In cspmtx, C-Matrix calculated using fitted potential

-------------------------------------------



 -------------------------------------------
  COSMO surface
  Area             =          620.649
  Volume           =         1148.090
  Number of Points =         1422
 -------------------------------------------



 ======================
 RI Hartree-Fock Scheme
 ======================
  
 Fit Set Quality     : GOOD
 Threshold Quality   : GOOD
 Integration Quality : GOOD
 Fit Generation Method : AUTO
 Response Quality    : DEFAULT
 Is Range Separated  :  F
 
 RIHartreeFock Dependency: number of modified vectors:           7
 cosmo_calcen: 0.5 (esolb+esolc) (Hartrees) =   -0.292995

 Solvation energy (screening term,uncorrected) =   -183.856888 kcal/mol

 Solvation energy (dispersion and cavitation terms) =      1.160565 kcal/mol
 Solvation Energy Contributions (Hartrees)
          esola   esolb+esolc
     0.29299457   -0.58598914
 esol last cycle   -0.29299457
  
 Hartree-Fock exchange energy:   -622.394512884697     
 cosmo_calcen: 0.5 (esolb+esolc) (Hartrees) =   -0.292995

 Solvation energy (screening term,uncorrected) =   -183.856896 kcal/mol

 Solvation energy (dispersion and cavitation terms) =      1.160565 kcal/mol
 Solvation Energy Contributions (Hartrees)
          esola   esolb+esolc
     0.29299458   -0.58598917
 esol last cycle   -0.29299458

 Energy gradients wrt nuclear displacements
 ==========================================

     Atom      Cartesian (a.u./angstrom)
                 X         Y         Z
 ----------------------------------------
     1 Pa    0.000082 -0.000105 -0.000001
     2 Cl    0.000108  0.000048 -0.000030
     3 Cl   -0.000022  0.000031 -0.000064
     4 Cl    0.000100  0.000018  0.000030
     5 Cl   -0.000018  0.000028  0.000060
     6 Cl   -0.000034 -0.000079 -0.000000
     7 O     0.000017  0.000080  0.000002
     8 O    -0.000090 -0.000053 -0.000028
     9 H    -0.000210  0.000079  0.000002
    10 H     0.000068 -0.000046  0.000028
 ----------------------------------------
 Mulliken charges used for AMS results%charges...
 
----------------------------------------------------------------------
Geometry Convergence after Step  13       (Hartree/Angstrom,Angstrom)
----------------------------------------------------------------------
current energy                               -2.81422340 Hartree
energy change                       0.00000014     0.00001000    T
constrained gradient max            0.00014444     0.00010000    F
constrained gradient rms            0.00005293     0.00006667    T
gradient max                        0.00014444
gradient rms                        0.00005293
cart. step max                      0.00414374     0.00100000    F
cart. step rms                      0.00122458     0.00066667    F
 
 
--------
Geometry
--------
Formula: H2Cl5O2Pa
Atoms
  Index Symbol   x (angstrom)   y (angstrom)   z (angstrom)
      1     Pa    -0.08962108     0.57960043     1.24894376       adf.R=2.200
      2     Cl     0.10916015     2.70487398    -0.43827927       adf.R=1.725
      3     Cl    -0.03245432    -0.57131550     3.76294561       adf.R=1.725
      4     Cl     0.10938800     2.70395661     2.93735628       adf.R=1.725
      5     Cl    -0.03392222    -0.57002771    -1.26571306       adf.R=1.725
      6     Cl     2.53063418     0.37555259     1.24824779       adf.R=1.725
      7      O    -1.91658389     0.61879716     1.24923287       adf.R=1.517
      8      O    -0.16326700    -1.98678584     1.24875173       adf.R=1.517
      9      H     0.19853007    -2.41630054     0.46491077       adf.R=1.350
     10      H     0.19097369    -2.41509712     2.03629760       adf.R=1.350
 
Total System Charge            -2.00000
Bonding info available!
 
 *** GO1_GOStep14 ***

 SOLVATION
-------------------------------------------

  The Delley construction of COSMO surface surface is calculated

       Division Level for Surface Triangles (NDIV)                  3
       Final Division Level for Triangles (NFDIV)                   1
       Radius of the Solvent (RSOL)                           1.93000 angstr
  Dielectric Constant (EPSL)                                 78.39000

       COSMO equation is solved iteratively-               conjugate-gradient

       Maximun of Iterations for Charges (NCIX)                  1000
       Criterion for Charge convergence (CCNV)                1.0E-08

  COSMO charges included variationally in SCF

       COSMO included at every SCF cycle

  Geometry-dependent empirical factor                         0.00000

  C-Matrix calculated in cspmtx

  In cspmtx, C-Matrix calculated using fitted potential

-------------------------------------------



 -------------------------------------------
  COSMO surface
  Area             =          620.623
  Volume           =         1148.035
  Number of Points =         1421
 -------------------------------------------



 ======================
 RI Hartree-Fock Scheme
 ======================
  
 Fit Set Quality     : GOOD
 Threshold Quality   : GOOD
 Integration Quality : GOOD
 Fit Generation Method : AUTO
 Response Quality    : DEFAULT
 Is Range Separated  :  F
 
 RIHartreeFock Dependency: number of modified vectors:           7
 cosmo_calcen: 0.5 (esolb+esolc) (Hartrees) =   -0.293002

 Solvation energy (screening term,uncorrected) =   -183.861466 kcal/mol

 Solvation energy (dispersion and cavitation terms) =      1.160517 kcal/mol
 Solvation Energy Contributions (Hartrees)
          esola   esolb+esolc
     0.29300187   -0.58600373
 esol last cycle   -0.29300187
  
 Hartree-Fock exchange energy:   -622.394594807634     
 cosmo_calcen: 0.5 (esolb+esolc) (Hartrees) =   -0.293002

 Solvation energy (screening term,uncorrected) =   -183.861474 kcal/mol

 Solvation energy (dispersion and cavitation terms) =      1.160517 kcal/mol
 Solvation Energy Contributions (Hartrees)
          esola   esolb+esolc
     0.29300188   -0.58600376
 esol last cycle   -0.29300188

 Energy gradients wrt nuclear displacements
 ==========================================

     Atom      Cartesian (a.u./angstrom)
                 X         Y         Z
 ----------------------------------------
     1 Pa    0.000059 -0.000014  0.000052
     2 Cl    0.000132 -0.000018  0.000028
     3 Cl    0.000035  0.000031 -0.000093
     4 Cl    0.000122 -0.000027 -0.000029
     5 Cl   -0.000012  0.000046 -0.000005
     6 Cl   -0.000094 -0.000074 -0.000000
     7 O    -0.000038  0.000084 -0.000013
     8 O    -0.000056 -0.000038  0.000594
     9 H     0.000222 -0.000179 -0.000237
    10 H    -0.000371  0.000189 -0.000297
 ----------------------------------------
 Mulliken charges used for AMS results%charges...

 dE(predicted):    -0.60079E-06, dE(actual):     0.13893E-05, Trust radius:    0.020000, all in a.u.
 
----------------------------------------------------------------------
Geometry Convergence after Step  14       (Hartree/Angstrom,Angstrom)
----------------------------------------------------------------------
current energy                               -2.81422201 Hartree
energy change                       0.00000139     0.00001000    T
constrained gradient max            0.00059404     0.00010000    F
constrained gradient rms            0.00016141     0.00006667    F
gradient max                        0.00059404
gradient rms                        0.00016141
cart. step max                      0.00259825     0.00100000    F
cart. step rms                      0.00073458     0.00066667    F
 
 
--------
Geometry
--------
Formula: H2Cl5O2Pa
Atoms
  Index Symbol   x (angstrom)   y (angstrom)   z (angstrom)
      1     Pa    -0.08913920     0.57956247     1.24913247       adf.R=2.200
      2     Cl     0.10879734     2.70476604    -0.43860111       adf.R=1.725
      3     Cl    -0.03306025    -0.57099396     3.76327481       adf.R=1.725
      4     Cl     0.10900539     2.70435219     2.93738895       adf.R=1.725
      5     Cl    -0.03347516    -0.57054837    -1.26523065       adf.R=1.725
      6     Cl     2.53124064     0.37562019     1.24885765       adf.R=1.725
      7      O    -1.91604646     0.61863560     1.24926358       adf.R=1.517
      8      O    -0.16353859    -1.98681575     1.24902640       adf.R=1.517
      9      H     0.19593182    -2.41596333     0.46405811       adf.R=1.350
     10      H     0.19312206    -2.41536102     2.03552385       adf.R=1.350
 
Total System Charge            -2.00000
Bonding info available!
 
 *** GO1_GOStep15 ***

 SOLVATION
-------------------------------------------

  The Delley construction of COSMO surface surface is calculated

       Division Level for Surface Triangles (NDIV)                  3
       Final Division Level for Triangles (NFDIV)                   1
       Radius of the Solvent (RSOL)                           1.93000 angstr
  Dielectric Constant (EPSL)                                 78.39000

       COSMO equation is solved iteratively-               conjugate-gradient

       Maximun of Iterations for Charges (NCIX)                  1000
       Criterion for Charge convergence (CCNV)                1.0E-08

  COSMO charges included variationally in SCF

       COSMO included at every SCF cycle

  Geometry-dependent empirical factor                         0.00000

  C-Matrix calculated in cspmtx

  In cspmtx, C-Matrix calculated using fitted potential

-------------------------------------------



 -------------------------------------------
  COSMO surface
  Area             =          620.644
  Volume           =         1148.043
  Number of Points =         1422
 -------------------------------------------



 ======================
 RI Hartree-Fock Scheme
 ======================
  
 Fit Set Quality     : GOOD
 Threshold Quality   : GOOD
 Integration Quality : GOOD
 Fit Generation Method : AUTO
 Response Quality    : DEFAULT
 Is Range Separated  :  F
 
 RIHartreeFock Dependency: number of modified vectors:           7
 cosmo_calcen: 0.5 (esolb+esolc) (Hartrees) =   -0.292999

 Solvation energy (screening term,uncorrected) =   -183.859420 kcal/mol

 Solvation energy (dispersion and cavitation terms) =      1.160557 kcal/mol
 Solvation Energy Contributions (Hartrees)
          esola   esolb+esolc
     0.29299860   -0.58599721
 esol last cycle   -0.29299860
  
 Hartree-Fock exchange energy:   -622.394541069858     
 cosmo_calcen: 0.5 (esolb+esolc) (Hartrees) =   -0.292999

 Solvation energy (screening term,uncorrected) =   -183.859428 kcal/mol

 Solvation energy (dispersion and cavitation terms) =      1.160557 kcal/mol
 Solvation Energy Contributions (Hartrees)
          esola   esolb+esolc
     0.29299862   -0.58599724
 esol last cycle   -0.29299862

 Energy gradients wrt nuclear displacements
 ==========================================

     Atom      Cartesian (a.u./angstrom)
                 X         Y         Z
 ----------------------------------------
     1 Pa    0.000070 -0.000056  0.000021
     2 Cl    0.000112  0.000021 -0.000004
     3 Cl   -0.000005  0.000033 -0.000063
     4 Cl    0.000104 -0.000001  0.000004
     5 Cl   -0.000018  0.000029  0.000034
     6 Cl   -0.000047 -0.000080 -0.000001
     7 O     0.000007  0.000079 -0.000002
     8 O    -0.000079 -0.000042  0.000130
     9 H     0.000066 -0.000170 -0.000056
    10 H    -0.000211  0.000188 -0.000063
 ----------------------------------------
 Mulliken charges used for AMS results%charges...

 dE(predicted):    -0.55772E-06, dE(actual):    -0.11226E-05, Trust radius:    0.020000, all in a.u.
 
----------------------------------------------------------------------
Geometry Convergence after Step  15       (Hartree/Angstrom,Angstrom)
----------------------------------------------------------------------
current energy                               -2.81422313 Hartree
energy change                      -0.00000112     0.00001000    T
constrained gradient max            0.00018847     0.00010000    F
constrained gradient rms            0.00006983     0.00006667    F
gradient max                        0.00018847
gradient rms                        0.00006983
cart. step max                      0.00422769     0.00100000    F
cart. step rms                      0.00133990     0.00066667    F
 
 
--------
Geometry
--------
Formula: H2Cl5O2Pa
Atoms
  Index Symbol   x (angstrom)   y (angstrom)   z (angstrom)
      1     Pa    -0.08854457     0.57957653     1.24962996       adf.R=2.200
      2     Cl     0.10852593     2.70414097    -0.43932491       adf.R=1.725
      3     Cl    -0.03434916    -0.57034330     3.76408334       adf.R=1.725
      4     Cl     0.10853257     2.70518171     2.93726008       adf.R=1.725
      5     Cl    -0.03311757    -0.57159601    -1.26422161       adf.R=1.725
      6     Cl     2.53195563     0.37560954     1.25016590       adf.R=1.725
      7      O    -1.91539074     0.61856423     1.24942397       adf.R=1.517
      8      O    -0.16365938    -1.98678849     1.24959997       adf.R=1.517
      9      H     0.19170413    -2.41466067     0.46226042       adf.R=1.350
     10      H     0.19718075    -2.41643046     2.03381696       adf.R=1.350
 
Total System Charge            -2.00000
Bonding info available!
 
 *** GO1_GOStep16 ***

 SOLVATION
-------------------------------------------

  The Delley construction of COSMO surface surface is calculated

       Division Level for Surface Triangles (NDIV)                  3
       Final Division Level for Triangles (NFDIV)                   1
       Radius of the Solvent (RSOL)                           1.93000 angstr
  Dielectric Constant (EPSL)                                 78.39000

       COSMO equation is solved iteratively-               conjugate-gradient

       Maximun of Iterations for Charges (NCIX)                  1000
       Criterion for Charge convergence (CCNV)                1.0E-08

  COSMO charges included variationally in SCF

       COSMO included at every SCF cycle

  Geometry-dependent empirical factor                         0.00000

  C-Matrix calculated in cspmtx

  In cspmtx, C-Matrix calculated using fitted potential

-------------------------------------------



 -------------------------------------------
  COSMO surface
  Area             =          620.643
  Volume           =         1148.385
  Number of Points =         1422
 -------------------------------------------



 ======================
 RI Hartree-Fock Scheme
 ======================
  
 Fit Set Quality     : GOOD
 Threshold Quality   : GOOD
 Integration Quality : GOOD
 Fit Generation Method : AUTO
 Response Quality    : DEFAULT
 Is Range Separated  :  F
 
 RIHartreeFock Dependency: number of modified vectors:           7
 cosmo_calcen: 0.5 (esolb+esolc) (Hartrees) =   -0.292991

 Solvation energy (screening term,uncorrected) =   -183.854348 kcal/mol

 Solvation energy (dispersion and cavitation terms) =      1.160554 kcal/mol
 Solvation Energy Contributions (Hartrees)
          esola   esolb+esolc
     0.29299052   -0.58598105
 esol last cycle   -0.29299052
  
 Hartree-Fock exchange energy:   -622.394476967134     
 cosmo_calcen: 0.5 (esolb+esolc) (Hartrees) =   -0.292991

 Solvation energy (screening term,uncorrected) =   -183.854356 kcal/mol

 Solvation energy (dispersion and cavitation terms) =      1.160554 kcal/mol
[...]
      2     Cl     0.10892999     2.70601703    -0.43762828       adf.R=1.725
      3     Cl    -0.03162126    -0.57204560     3.76241888       adf.R=1.725
      4     Cl     0.10824197     2.70291386     2.93811762       adf.R=1.725
      5     Cl    -0.03321530    -0.56954118    -1.26678960       adf.R=1.725
      6     Cl     2.53166196     0.37625846     1.24746130       adf.R=1.725
      7      O    -1.91588485     0.61826605     1.24851809       adf.R=1.517
      8      O    -0.16348591    -1.98633501     1.24871128       adf.R=1.517
      9      H     0.19651352    -2.41950740     0.46611289       adf.R=1.350
     10      H     0.19067201    -2.41248237     2.03751745       adf.R=1.350
 
Total System Charge            -2.00000
Bonding info available!
 
 *** GO1_GOStep38 ***

 SOLVATION
-------------------------------------------

  The Delley construction of COSMO surface surface is calculated

       Division Level for Surface Triangles (NDIV)                  3
       Final Division Level for Triangles (NFDIV)                   1
       Radius of the Solvent (RSOL)                           1.93000 angstr
  Dielectric Constant (EPSL)                                 78.39000

       COSMO equation is solved iteratively-               conjugate-gradient

       Maximun of Iterations for Charges (NCIX)                  1000
       Criterion for Charge convergence (CCNV)                1.0E-08

  COSMO charges included variationally in SCF

       COSMO included at every SCF cycle

  Geometry-dependent empirical factor                         0.00000

  C-Matrix calculated in cspmtx

  In cspmtx, C-Matrix calculated using fitted potential

-------------------------------------------



 -------------------------------------------
  COSMO surface
  Area             =          620.797
  Volume           =         1147.931
  Number of Points =         1422
 -------------------------------------------



 ======================
 RI Hartree-Fock Scheme
 ======================
  
 Fit Set Quality     : GOOD
 Threshold Quality   : GOOD
 Integration Quality : GOOD
 Fit Generation Method : AUTO
 Response Quality    : DEFAULT
 Is Range Separated  :  F
 
 RIHartreeFock Dependency: number of modified vectors:           7
 cosmo_calcen: 0.5 (esolb+esolc) (Hartrees) =   -0.293002

 Solvation energy (screening term,uncorrected) =   -183.861839 kcal/mol

 Solvation energy (dispersion and cavitation terms) =      1.160843 kcal/mol
 Solvation Energy Contributions (Hartrees)
          esola   esolb+esolc
     0.29300246   -0.58600492
 esol last cycle   -0.29300246
  
 Hartree-Fock exchange energy:   -622.394515784414     
 cosmo_calcen: 0.5 (esolb+esolc) (Hartrees) =   -0.293002

 Solvation energy (screening term,uncorrected) =   -183.861847 kcal/mol

 Solvation energy (dispersion and cavitation terms) =      1.160843 kcal/mol
 Solvation Energy Contributions (Hartrees)
          esola   esolb+esolc
     0.29300247   -0.58600495
 esol last cycle   -0.29300247

 Energy gradients wrt nuclear displacements
 ==========================================

     Atom      Cartesian (a.u./angstrom)
                 X         Y         Z
 ----------------------------------------
     1 Pa   -0.000029  0.000050  0.000099
     2 Cl    0.000122  0.000016  0.000031
     3 Cl    0.000007  0.000022 -0.000067
     4 Cl    0.000096 -0.000050 -0.000020
     5 Cl   -0.000010 -0.000000 -0.000090
     6 Cl    0.000006 -0.000087 -0.000008
     7 O     0.000031  0.000065  0.000008
     8 O    -0.000062  0.000005  0.000502
     9 H     0.000132 -0.000356 -0.000193
    10 H    -0.000293  0.000335 -0.000263
 ----------------------------------------
 Mulliken charges used for AMS results%charges...
 
----------------------------------------------------------------------
Geometry Convergence after Step  38       (Hartree/Angstrom,Angstrom)
----------------------------------------------------------------------
current energy                               -2.81422373 Hartree
energy change                       0.00000007     0.00001000    T
constrained gradient max            0.00049595     0.00010000    F
constrained gradient rms            0.00015492     0.00006667    F
gradient max                        0.00049595
gradient rms                        0.00015492
cart. step max                      0.00255989     0.00100000    F
cart. step rms                      0.00108692     0.00066667    F
 
 
--------
Geometry
--------
Formula: H2Cl5O2Pa
Atoms
  Index Symbol   x (angstrom)   y (angstrom)   z (angstrom)
      1     Pa    -0.08884155     0.57969913     1.24896350       adf.R=2.200
      2     Cl     0.10853184     2.70494506    -0.43845695       adf.R=1.725
      3     Cl    -0.03251697    -0.57127969     3.76334858       adf.R=1.725
      4     Cl     0.10858438     2.70400634     2.93757321       adf.R=1.725
      5     Cl    -0.03292114    -0.57049448    -1.26566417       adf.R=1.725
      6     Cl     2.53178540     0.37622490     1.24869053       adf.R=1.725
      7      O    -1.91574115     0.61835238     1.24905270       adf.R=1.517
      8      O    -0.16345675    -1.98636550     1.24902959       adf.R=1.517
      9      H     0.19482968    -2.41694751     0.46432734       adf.R=1.350
     10      H     0.19258385    -2.41488659     2.03582974       adf.R=1.350
 
Total System Charge            -2.00000
Bonding info available!
 
 *** GO1_GOStep39 ***

 SOLVATION
-------------------------------------------

  The Delley construction of COSMO surface surface is calculated

       Division Level for Surface Triangles (NDIV)                  3
       Final Division Level for Triangles (NFDIV)                   1
       Radius of the Solvent (RSOL)                           1.93000 angstr
  Dielectric Constant (EPSL)                                 78.39000

       COSMO equation is solved iteratively-               conjugate-gradient

       Maximun of Iterations for Charges (NCIX)                  1000
       Criterion for Charge convergence (CCNV)                1.0E-08

  COSMO charges included variationally in SCF

       COSMO included at every SCF cycle

  Geometry-dependent empirical factor                         0.00000

  C-Matrix calculated in cspmtx

  In cspmtx, C-Matrix calculated using fitted potential

-------------------------------------------



 -------------------------------------------
  COSMO surface
  Area             =          620.412
  Volume           =         1147.595
  Number of Points =         1421
 -------------------------------------------



 ======================
 RI Hartree-Fock Scheme
 ======================
  
 Fit Set Quality     : GOOD
 Threshold Quality   : GOOD
 Integration Quality : GOOD
 Fit Generation Method : AUTO
 Response Quality    : DEFAULT
 Is Range Separated  :  F
 
 RIHartreeFock Dependency: number of modified vectors:           7
 cosmo_calcen: 0.5 (esolb+esolc) (Hartrees) =   -0.292998

 Solvation energy (screening term,uncorrected) =   -183.859285 kcal/mol

 Solvation energy (dispersion and cavitation terms) =      1.160123 kcal/mol
 Solvation Energy Contributions (Hartrees)
          esola   esolb+esolc
     0.29299839   -0.58599678
 esol last cycle   -0.29299839
  
 Hartree-Fock exchange energy:   -622.394500108474     
 cosmo_calcen: 0.5 (esolb+esolc) (Hartrees) =   -0.292998

 Solvation energy (screening term,uncorrected) =   -183.859293 kcal/mol

 Solvation energy (dispersion and cavitation terms) =      1.160123 kcal/mol
 Solvation Energy Contributions (Hartrees)
          esola   esolb+esolc
     0.29299840   -0.58599681
 esol last cycle   -0.29299840

 Energy gradients wrt nuclear displacements
 ==========================================

     Atom      Cartesian (a.u./angstrom)
                 X         Y         Z
 ----------------------------------------
     1 Pa    0.000030  0.000025  0.000033
     2 Cl    0.000106  0.000010  0.000008
     3 Cl   -0.000011  0.000012 -0.000021
     4 Cl    0.000096 -0.000023 -0.000006
     5 Cl   -0.000016  0.000005 -0.000016
     6 Cl    0.000009 -0.000086 -0.000003
     7 O     0.000014  0.000072 -0.000003
     8 O    -0.000069 -0.000003  0.000101
     9 H     0.000042 -0.000201 -0.000040
    10 H    -0.000200  0.000190 -0.000054
 ----------------------------------------
 Mulliken charges used for AMS results%charges...
 
----------------------------------------------------------------------
Geometry Convergence after Step  39       (Hartree/Angstrom,Angstrom)
----------------------------------------------------------------------
current energy                               -2.81422454 Hartree
energy change                      -0.00000081     0.00001000    T
constrained gradient max            0.00019473     0.00010000    F
constrained gradient rms            0.00006394     0.00006667    T
gradient max                        0.00019473
gradient rms                        0.00006394
cart. step max                      0.00465972     0.00100000    F
cart. step rms                      0.00196410     0.00066667    F
 
 
--------
Geometry
--------
Formula: H2Cl5O2Pa
Atoms
  Index Symbol   x (angstrom)   y (angstrom)   z (angstrom)
      1     Pa    -0.08863151     0.57967401     1.25022506       adf.R=2.200
      2     Cl     0.10782749     2.70306110    -0.43992277       adf.R=1.725
      3     Cl    -0.03405253    -0.56985061     3.76501543       adf.R=1.725
      4     Cl     0.10916932     2.70602263     2.93652790       adf.R=1.725
      5     Cl    -0.03228392    -0.57219934    -1.26370678       adf.R=1.725
      6     Cl     2.53200304     0.37613440     1.25091619       adf.R=1.725
      7      O    -1.91548492     0.61840531     1.25012734       adf.R=1.517
      8      O    -0.16342550    -1.98642100     1.24964447       adf.R=1.517
      9      H     0.19177345    -2.41228779     0.46113834       adf.R=1.350
     10      H     0.19594268    -2.41928464     2.03272888       adf.R=1.350
 
Total System Charge            -2.00000
Bonding info available!
 
 *** GO1_GOStep40 ***

 SOLVATION
-------------------------------------------

  The Delley construction of COSMO surface surface is calculated

       Division Level for Surface Triangles (NDIV)                  3
       Final Division Level for Triangles (NFDIV)                   1
       Radius of the Solvent (RSOL)                           1.93000 angstr
  Dielectric Constant (EPSL)                                 78.39000

       COSMO equation is solved iteratively-               conjugate-gradient

       Maximun of Iterations for Charges (NCIX)                  1000
       Criterion for Charge convergence (CCNV)                1.0E-08

  COSMO charges included variationally in SCF

       COSMO included at every SCF cycle

  Geometry-dependent empirical factor                         0.00000

  C-Matrix calculated in cspmtx

  In cspmtx, C-Matrix calculated using fitted potential

-------------------------------------------



 -------------------------------------------
  COSMO surface
  Area             =          620.662
  Volume           =         1148.384
  Number of Points =         1422
 -------------------------------------------



 ======================
 RI Hartree-Fock Scheme
 ======================
  
 Fit Set Quality     : GOOD
 Threshold Quality   : GOOD
 Integration Quality : GOOD
 Fit Generation Method : AUTO
 Response Quality    : DEFAULT
 Is Range Separated  :  F
 
 RIHartreeFock Dependency: number of modified vectors:           7
 cosmo_calcen: 0.5 (esolb+esolc) (Hartrees) =   -0.292993

 Solvation energy (screening term,uncorrected) =   -183.855778 kcal/mol

 Solvation energy (dispersion and cavitation terms) =      1.160591 kcal/mol
 Solvation Energy Contributions (Hartrees)
          esola   esolb+esolc
     0.29299280   -0.58598560
 esol last cycle   -0.29299280
  
 Hartree-Fock exchange energy:   -622.394485619303     
 cosmo_calcen: 0.5 (esolb+esolc) (Hartrees) =   -0.292993

 Solvation energy (screening term,uncorrected) =   -183.855786 kcal/mol

 Solvation energy (dispersion and cavitation terms) =      1.160591 kcal/mol
 Solvation Energy Contributions (Hartrees)
          esola   esolb+esolc
     0.29299281   -0.58598563
 esol last cycle   -0.29299281

 Energy gradients wrt nuclear displacements
 ==========================================

     Atom      Cartesian (a.u./angstrom)
                 X         Y         Z
 ----------------------------------------
     1 Pa    0.000034 -0.000015 -0.000119
     2 Cl    0.000080 -0.000013 -0.000030
     3 Cl   -0.000038 -0.000007  0.000058
     4 Cl    0.000104  0.000052  0.000019
     5 Cl   -0.000022  0.000011  0.000100
     6 Cl    0.000024 -0.000087  0.000007
     7 O     0.000056  0.000067  0.000013
     8 O    -0.000071 -0.000023 -0.000508
     9 H    -0.000294  0.000360  0.000210
    10 H     0.000127 -0.000345  0.000250
 ----------------------------------------
 Mulliken charges used for AMS results%charges...

 dE(predicted):    -0.15761E-05, dE(actual):     0.10337E-05, Trust radius:    0.020000, all in a.u.
 
----------------------------------------------------------------------
Geometry Convergence after Step  40       (Hartree/Angstrom,Angstrom)
----------------------------------------------------------------------
current energy                               -2.81422350 Hartree
energy change                       0.00000103     0.00001000    T
constrained gradient max            0.00050177     0.00010000    F
constrained gradient rms            0.00015658     0.00006667    F
gradient max                        0.00050177
gradient rms                        0.00015658
cart. step max                      0.00272722     0.00100000    F
cart. step rms                      0.00113092     0.00066667    F
 
 
--------
Geometry
--------
Formula: H2Cl5O2Pa
Atoms
  Index Symbol   x (angstrom)   y (angstrom)   z (angstrom)
      1     Pa    -0.08873887     0.57968868     1.24949248       adf.R=2.200
      2     Cl     0.10826017     2.70415338    -0.43906433       adf.R=1.725
      3     Cl    -0.03320204    -0.57068800     3.76404553       adf.R=1.725
      4     Cl     0.10879621     2.70484271     2.93714005       adf.R=1.725
      5     Cl    -0.03267703    -0.57119546    -1.26486722       adf.R=1.725
      6     Cl     2.53189066     0.37617832     1.24962795       adf.R=1.725
      7      O    -1.91561937     0.61838071     1.24947493       adf.R=1.517
      8      O    -0.16342910    -1.98637917     1.24934262       adf.R=1.517
      9      H     0.19343128    -2.41501501     0.46297724       adf.R=1.350
     10      H     0.19412569    -2.41671213     2.03452483       adf.R=1.350
 
Total System Charge            -2.00000
Bonding info available!
 
 *** GO1_GOStep41 ***

 SOLVATION
-------------------------------------------

  The Delley construction of COSMO surface surface is calculated

       Division Level for Surface Triangles (NDIV)                  3
       Final Division Level for Triangles (NFDIV)                   1
       Radius of the Solvent (RSOL)                           1.93000 angstr
  Dielectric Constant (EPSL)                                 78.39000

       COSMO equation is solved iteratively-               conjugate-gradient

       Maximun of Iterations for Charges (NCIX)                  1000
       Criterion for Charge convergence (CCNV)                1.0E-08

  COSMO charges included variationally in SCF

       COSMO included at every SCF cycle

  Geometry-dependent empirical factor                         0.00000

  C-Matrix calculated in cspmtx

  In cspmtx, C-Matrix calculated using fitted potential

-------------------------------------------



 -------------------------------------------
  COSMO surface
  Area             =          620.661
  Volume           =         1148.412
  Number of Points =         1422
 -------------------------------------------



 ======================
 RI Hartree-Fock Scheme
 ======================
  
 Fit Set Quality     : GOOD
 Threshold Quality   : GOOD
 Integration Quality : GOOD
 Fit Generation Method : AUTO
 Response Quality    : DEFAULT
 Is Range Separated  :  F
 
 RIHartreeFock Dependency: number of modified vectors:           7
 cosmo_calcen: 0.5 (esolb+esolc) (Hartrees) =   -0.292997

 Solvation energy (screening term,uncorrected) =   -183.858155 kcal/mol

 Solvation energy (dispersion and cavitation terms) =      1.160588 kcal/mol
 Solvation Energy Contributions (Hartrees)
          esola   esolb+esolc
     0.29299659   -0.58599318
 esol last cycle   -0.29299659
  
 Hartree-Fock exchange energy:   -622.394493382807     
 cosmo_calcen: 0.5 (esolb+esolc) (Hartrees) =   -0.292997

 Solvation energy (screening term,uncorrected) =   -183.858163 kcal/mol

 Solvation energy (dispersion and cavitation terms) =      1.160588 kcal/mol
 Solvation Energy Contributions (Hartrees)
          esola   esolb+esolc
     0.29299660   -0.58599320
 esol last cycle   -0.29299660
 
 ============
 Timer stack:
 ------------
  1718878427.54  AMS
  1718890300.86  ADFEngine%Solve
  1718890416.02  ENGRADS
  1718890416.02  GRAD
  1718890417.50  POTENTIAL
  1718890527.43  MirkoHF-CalcExchangeMatrix
  1718890527.43  HF1234
  1718890527.55  pp
  1718890527.55  DispatchAll
 ============

Process received SIGTERM
 WARNING: Nr of shared arrays in use at the end:           98
 Names of the Shared Arrays that have not been deleted
 projCoeff
 projCoeff
 projCoeff
 projCoeff
 TAPE21%A%SFO
 activefrag%initialMOs%A%_A%eigbas
 activefrag%initialMOs%A%_A%eigbas
 TAPE21%Ftyp 1S%Eigen-Bas_A
 TAPE21%Ftyp 1P:x%Eigen-Bas_A
 TAPE21%Ftyp 1P:y%Eigen-Bas_A
 TAPE21%Ftyp 1P:z%Eigen-Bas_A
 TAPE21%Ftyp 1D:z2%Eigen-Bas_A
 TAPE21%Ftyp 1D:x2-y2%Eigen-Bas_A
 TAPE21%Ftyp 1D:xy%Eigen-Bas_A
 TAPE21%Ftyp 1D:xz%Eigen-Bas_A
 TAPE21%Ftyp 1D:yz%Eigen-Bas_A
 TAPE21%Ftyp 1F:z3%Eigen-Bas_A
 TAPE21%Ftyp 1F:z%Eigen-Bas_A
 TAPE21%Ftyp 1F:xyz%Eigen-Bas_A
 TAPE21%Ftyp 1F:z2x%Eigen-Bas_A
 TAPE21%Ftyp 1F:z2y%Eigen-Bas_A
 TAPE21%Ftyp 1F:x%Eigen-Bas_A
 TAPE21%Ftyp 1F:y%Eigen-Bas_A
 TAPE21%Ftyp 2S%Eigen-Bas_A
 TAPE21%Ftyp 2P:x%Eigen-Bas_A
 TAPE21%Ftyp 2P:y%Eigen-Bas_A
 TAPE21%Ftyp 2P:z%Eigen-Bas_A
 TAPE21%Ftyp 2D:z2%Eigen-Bas_A
 TAPE21%Ftyp 2D:x2-y2%Eigen-Bas_A
 TAPE21%Ftyp 2D:xy%Eigen-Bas_A
 TAPE21%Ftyp 2D:xz%Eigen-Bas_A
 TAPE21%Ftyp 2D:yz%Eigen-Bas_A
 TAPE21%Ftyp 2F:z3%Eigen-Bas_A
 TAPE21%Ftyp 2F:z%Eigen-Bas_A
 TAPE21%Ftyp 2F:xyz%Eigen-Bas_A
 TAPE21%Ftyp 2F:z2x%Eigen-Bas_A
 TAPE21%Ftyp 2F:z2y%Eigen-Bas_A
 TAPE21%Ftyp 2F:x%Eigen-Bas_A
 TAPE21%Ftyp 2F:y%Eigen-Bas_A
 TAPE21%Ftyp 3S%Eigen-Bas_A
 TAPE21%Ftyp 3P:x%Eigen-Bas_A
 TAPE21%Ftyp 3P:y%Eigen-Bas_A
 TAPE21%Ftyp 3P:z%Eigen-Bas_A
 TAPE21%Ftyp 3D:z2%Eigen-Bas_A
 TAPE21%Ftyp 3D:x2-y2%Eigen-Bas_A
 TAPE21%Ftyp 3D:xy%Eigen-Bas_A
 TAPE21%Ftyp 3D:xz%Eigen-Bas_A
 TAPE21%Ftyp 3D:yz%Eigen-Bas_A
 TAPE21%Ftyp 3F:z3%Eigen-Bas_A
 TAPE21%Ftyp 3F:z%Eigen-Bas_A
 TAPE21%Ftyp 3F:xyz%Eigen-Bas_A
 TAPE21%Ftyp 3F:z2x%Eigen-Bas_A
 TAPE21%Ftyp 3F:z2y%Eigen-Bas_A
 TAPE21%Ftyp 3F:x%Eigen-Bas_A
 TAPE21%Ftyp 3F:y%Eigen-Bas_A
 TAPE21%Ftyp 4S%Eigen-Bas_A
 TAPE21%Ftyp 4P:x%Eigen-Bas_A
 TAPE21%Ftyp 4P:y%Eigen-Bas_A
 TAPE21%Ftyp 4P:z%Eigen-Bas_A
 TAPE21%Ftyp 4D:z2%Eigen-Bas_A
 TAPE21%Ftyp 4D:x2-y2%Eigen-Bas_A
 TAPE21%Ftyp 4D:xy%Eigen-Bas_A
 TAPE21%Ftyp 4D:xz%Eigen-Bas_A
 TAPE21%Ftyp 4D:yz%Eigen-Bas_A
 TAPE21%ActiveFragA%Eigen-Bas_A
 TAPE15%Matrices%Smat
 TAPE21%A%Low-Bas
 TAPE21%A%Orth-Bas
 grid%coords
 grid%w
 grid%distance2atoms
 grid%neighbors
 TAPE15%Matrices%Tmat_AO
 TAPE15%Matrices%H1mat_AO
 projCoeff
 TAPE15%Matrices%Tmat
 TAPE15%Matrices%H1mat
 fullGrid
 EIG%eigbas
 calc_gradient:pmatbas
 SerializedTensorsType
 TAPE15%Matrices%Fmat
 TAPE15%Pmat%Pmat_A
 TAPE15%A%Eigen-Low_A
 TAPE21%A%Eigen-Bas_A
 SerializedTensorsType
 SerializedTensorsType
 kMat
 kMatFull
 SerializedTensorsType
 SerializedTensorsType
 zlmToCart
 pMatZlm
 kMatZlm
 pMatPermuted
 SerializedTensorsType
 SerializedTensorsType
 SerializedTensorsType
