

 Parallel Execution: Process Information
 ==============================================================================
 Rank   Node Name                              NodeID   MyNodeRank  NodeMaster
    0   u-0-5.local                               0          0          0
    1   u-0-5.local                               0          1         -1
    2   u-0-5.local                               0          2         -1
    3   u-0-5.local                               0          3         -1
    4   u-0-5.local                               1          0          1
    5   u-0-5.local                               1          1         -1
    6   u-0-5.local                               1          2         -1
    7   u-0-5.local                               1          3         -1
    8   u-0-5.local                               2          0          2
    9   u-0-5.local                               2          1         -1
   10   u-0-5.local                               2          2         -1
   11   u-0-5.local                               2          3         -1
   12   u-0-5.local                               3          0          3
   13   u-0-5.local                               3          1         -1
   14   u-0-5.local                               3          2         -1
   15   u-0-5.local                               3          3         -1
 ==============================================================================


May use up to 31228MB of RAM as shared memory on node 0
May use up to 31250MB of RAM as shared memory on node 1
May use up to 31250MB of RAM as shared memory on node 2
May use up to 31250MB of RAM as shared memory on node 3

 *******************************************************************************
 *                                                                             *
 *  --------------------------------                                           *
 *   Amsterdam Modeling Suite (AMS)              2023.104                      *
 *  --------------------------------                                           *
 *                                               r115785 2023-10-06            *
 *                                                                             *
 *                                                                             *
 *                              =================                              *
 *                              |               |                              *
 *                              |     A M S     |                              *
 *                              |               |                              *
 *                              =================                              *
 *                                                                             *
 *                                                                             *
 *   Online information and documentation:  https://www.scm.com/support/       *
 *   E-mail:  support@scm.com   info@scm.com                                   *
 *                                                                             *
 *   Scientific publications using AMS results must be properly referenced     *
 *   See the User Manuals (or the web site) for recommended citations          *
 *   The terms and conditions of the End User License Agreement apply to       *
 *   the use of AMS, https://www.scm.com/license-terms/                        *
 *                                                                             *
 **********************  x86_64_linux_intel / intelmpi  ************************
 
 Licensed to: Dr. Val?rie Vallet / Laboratoire PhLAM UMR 8523 / Villeneuve d'Ascq Cedex / FRANCE 2024-02-19 16:59:55
 SCM User ID: u10325
  
 AMS 2023.104  RunTime: Mar27-2024 18:07:32  ShM Nodes: 4  Procs: 16

 AMS jobname: pao_cl2_3h2o.SR.b3lyp.dzp.opt-freq-solvation
 AMS jobid  : 1679244994

 Start   directory: /home/shaaban/ams/PhD/geometries-exafs/pao_cl3_3h2o/pao_cl2_h2o3/
 Results directory: /home/shaaban/ams/PhD/geometries-exafs/pao_cl3_3h2o/pao_cl2_h2o3/pao_cl2_3h2o.SR.b3lyp.dzp.opt-freq-solvation.results/
 Scratch directory: /state/partition2/shaaban/1012542.phlam-s-sakura/amstmp_pao_cl2_3h2o.SR.b3lyp.dzp.opt-freq-solvation_kid0.1679244994/


 Communication costs MPI_COMM_WORLD:     -1.070 usec per message,   0.0440 usec per 8-byte item
 Communication costs for intra-node:      0.502 usec per message,   0.0084 usec per 8-byte item

 RNG seed: 22892964 2080638946 -1832513367 -239189146 386107915 -69373555 1162533142 -1757683902



                     *************************************************************************
                     *  ADF 2023.104  RunTime: Mar27-2024 18:07:33  ShM Nodes: 4  Procs: 16  *
                     *************************************************************************
  

       ***************************
       *  GEOMETRY OPTIMIZATION  *
       ***************************

Optimization Method                    Quasi Newton
Optimization Coordinates               Delocalized Coordinates
Optimize lattice                       F
 
 ------------------------------------------------------
 Convergence criteria (Hartree,Angstrom)
 ------------------------------------------------------
 Maximum gradient               0.001000000000
 Maximum rms gradient           0.000666666667
 Maximum step allowed           0.010000000000
 Maximum rms step allowed       0.006666666667
 Maximum energy change allowe   0.000130000000
 Maximum stress energy allowe   0.000500000000
 
Initial model Hessian                  Automatic Hessian
 
------------------------------------
Quasi-Newton Optimizer Parameters
------------------------------------
Hessian Update Method                  BFGS
Maximum number of steps                  250
First GDIIS cycle                          0
Maximum GDIIS vectors                      0
Trust radius (bohr)                        0.200000
Trust radius varies                        T
Constraints converged at all steps         T
Use projector                              T
 
 Rigid motions settings for: old optimizer
 Atomic rotations (x,y,z):     T T T
 Atomic translations (x,y,z):  T T T
 Tolerance:                   1.000000000000000E-006
 
--------
Geometry
--------
Formula: H6Cl2O4Pa
Atoms
  Index Symbol   x (angstrom)   y (angstrom)   z (angstrom)
      1     Pa     0.68653362    -0.21454176    -0.00000000       adf.R=2.200
      2      O     0.61585555     2.07436729     0.00000000       adf.R=1.517
      3      H    -2.07773537    -1.58952017     0.00000000       adf.R=1.350
      4     Cl     0.68665774    -2.83454175     0.00000000       adf.R=1.725
      5     Cl    -1.93337097    -0.19218230     0.00000000       adf.R=1.725
      6      O     2.24558942     1.46279095     0.00000000       adf.R=1.517
      7      H     2.09390324     2.41073151     0.00000000       adf.R=1.350
      8      H     3.19354915     1.31122461     0.00000000       adf.R=1.350
      9      O     2.34825618    -1.79022514     0.00000000       adf.R=1.517
     10      H     2.14045789    -2.72746570     0.00000000       adf.R=1.350
     11      H     3.30515118    -1.71307612     0.00000000       adf.R=1.350
     12      O    -1.11835362    -1.62396790     0.00000000       adf.R=1.517
     13      H    -0.91180952    -2.56148566     0.00000000       adf.R=1.350
 
Total System Charge             1.00000
Bonding info available!
 
 
----------------
ADF Engine Input
----------------
 
 Basis
 Type DZP
 Core None
 End
 XC
 Hybrid B3LYP
 End
 Solvation
 Surf Delley
 Solv name=Water cav0=0.0 cav1=0.0067639
 Charged method=CONJ
 C-Mat POT
 SCF VAR ALL
 CSMRSP
 End
 

 Title: *** (NO TITLE) ***

Number of symmetry operators: 2
Schoenflies symbol:           C(S)
 Using automatic Hessian for delocalized coordinates.
 *** GO1_GOStep1 ***

 SOLVATION
-------------------------------------------

  The Delley construction of COSMO surface surface is calculated

       Division Level for Surface Triangles (NDIV)                  3
       Final Division Level for Triangles (NFDIV)                   1
       Radius of the Solvent (RSOL)                           1.93000 angstr
  Dielectric Constant (EPSL)                                 78.39000

       COSMO equation is solved iteratively-               conjugate-gradient

       Maximun of Iterations for Charges (NCIX)                  1000
       Criterion for Charge convergence (CCNV)                1.0E-08

  COSMO charges included variationally in SCF

       COSMO included at every SCF cycle

  Geometry-dependent empirical factor                         0.00000

  C-Matrix calculated in cspmtx

  In cspmtx, C-Matrix calculated using fitted potential

-------------------------------------------



 -------------------------------------------
  COSMO surface
  Area             =          530.734
  Volume           =          893.225
  Number of Points =         1393
 -------------------------------------------



 ======================
 RI Hartree-Fock Scheme
 ======================
  
 Fit Set Quality     : NORMAL
 Threshold Quality   : NORMAL
 Integration Quality : NORMAL
 Fit Generation Method : AUTO
 Response Quality    : DEFAULT
 Is Range Separated  :  F
 
 RIHartreeFock Dependency: number of modified vectors:           0
 cosmo_calcen: 0.5 (esolb+esolc) (Hartrees) =   -0.206387

 Solvation energy (screening term,uncorrected) =   -129.509518 kcal/mol

 Solvation energy (dispersion and cavitation terms) =      0.992431 kcal/mol
 Solvation Energy Contributions (Hartrees)
          esola   esolb+esolc
     0.20638653   -0.41277306
 esol last cycle   -0.20638653
  
 Hartree-Fock exchange energy:   -556.672579764068     
 cosmo_calcen: 0.5 (esolb+esolc) (Hartrees) =   -0.206386

 Solvation energy (screening term,uncorrected) =   -129.509424 kcal/mol

 Solvation energy (dispersion and cavitation terms) =      0.992431 kcal/mol
 Solvation Energy Contributions (Hartrees)
          esola   esolb+esolc
     0.20638638   -0.41277277
 esol last cycle   -0.20638638

 Energy gradients wrt nuclear displacements
 ==========================================

     Atom      Cartesian (a.u./angstrom)
                 X         Y         Z
 ----------------------------------------
     1 Pa    0.066712 -0.247419  0.000000
     2 O     0.369274  0.070660  0.000000
     3 H     0.085777  0.124034  0.000000
     4 Cl    0.227620  0.324974  0.000000
     5 Cl    0.347213 -0.823622  0.000000
     6 O    -0.357631  0.144666  0.000000
     7 H     0.021171 -0.024187  0.000000
     8 H    -0.077927  0.022037  0.000000
     9 O    -0.343263 -0.227230  0.000000
    10 H    -0.071406  0.067920  0.000000
    11 H    -0.055734 -0.035086  0.000000
    12 O    -0.189229  0.489546  0.000000
    13 H    -0.022578  0.113705  0.000000
 ----------------------------------------
 Mulliken charges used for AMS results%charges...
 
----------------------------------------------------------------------
Geometry Convergence after Step   1       (Hartree/Angstrom,Angstrom)
----------------------------------------------------------------------
current energy                               -2.14182709 Hartree
energy change                      -2.14182709     0.00013000    F
constrained gradient max            0.82290580     0.00100000    F
constrained gradient rms            0.21572306     0.00066667    F
gradient max                        0.82290580
gradient rms                        0.21572306
cart. step max                      0.04511714     0.01000000    F
cart. step rms                      0.01669004     0.00666667    F
 
 
--------
Geometry
--------
Formula: H6Cl2O4Pa
Atoms
  Index Symbol   x (angstrom)   y (angstrom)   z (angstrom)
      1     Pa     0.67362463    -0.21247920    -0.00000000       adf.R=2.200
      2      O     0.58230639     2.05776303     0.00000000       adf.R=1.517
      3      H    -2.09964403    -1.58202764     0.00000000       adf.R=1.350
      4     Cl     0.68907325    -2.84471901     0.00000000       adf.R=1.725
      5     Cl    -1.95766723    -0.14706516     0.00000000       adf.R=1.725
      6      O     2.25693109     1.44200824     0.00000000       adf.R=1.517
      7      H     2.10619150     2.39332549     0.00000000       adf.R=1.350
      8      H     3.21326281     1.28461597     0.00000000       adf.R=1.350
      9      O     2.36543088    -1.76749454     0.00000000       adf.R=1.517
     10      H     2.16055778    -2.72006938     0.00000000       adf.R=1.350
     11      H     3.32775822    -1.67500819     0.00000000       adf.R=1.350
     12      O    -1.12704927    -1.63272032     0.00000000       adf.R=1.517
     13      H    -0.91609151    -2.58402142     0.00000000       adf.R=1.350
 
Total System Charge             1.00000
Bonding info available!
 
 *** GO1_GOStep2 ***

 SOLVATION
-------------------------------------------

  The Delley construction of COSMO surface surface is calculated

       Division Level for Surface Triangles (NDIV)                  3
       Final Division Level for Triangles (NFDIV)                   1
       Radius of the Solvent (RSOL)                           1.93000 angstr
  Dielectric Constant (EPSL)                                 78.39000

       COSMO equation is solved iteratively-               conjugate-gradient

       Maximun of Iterations for Charges (NCIX)                  1000
       Criterion for Charge convergence (CCNV)                1.0E-08

  COSMO charges included variationally in SCF

       COSMO included at every SCF cycle

  Geometry-dependent empirical factor                         0.00000

  C-Matrix calculated in cspmtx

  In cspmtx, C-Matrix calculated using fitted potential

-------------------------------------------



 -------------------------------------------
  COSMO surface
  Area             =          533.335
  Volume           =          899.816
  Number of Points =         1397
 -------------------------------------------



 ======================
 RI Hartree-Fock Scheme
 ======================
  
 Fit Set Quality     : NORMAL
 Threshold Quality   : NORMAL
 Integration Quality : NORMAL
 Fit Generation Method : AUTO
 Response Quality    : DEFAULT
 Is Range Separated  :  F
 
 RIHartreeFock Dependency: number of modified vectors:           0
 cosmo_calcen: 0.5 (esolb+esolc) (Hartrees) =   -0.205613

 Solvation energy (screening term,uncorrected) =   -129.024363 kcal/mol

 Solvation energy (dispersion and cavitation terms) =      0.997295 kcal/mol
 Solvation Energy Contributions (Hartrees)
          esola   esolb+esolc
     0.20561339   -0.41122678
 esol last cycle   -0.20561339
  
 Hartree-Fock exchange energy:   -556.603143674584     
 cosmo_calcen: 0.5 (esolb+esolc) (Hartrees) =   -0.205613

 Solvation energy (screening term,uncorrected) =   -129.024346 kcal/mol

 Solvation energy (dispersion and cavitation terms) =      0.997295 kcal/mol
 Solvation Energy Contributions (Hartrees)
          esola   esolb+esolc
     0.20561336   -0.41122672
 esol last cycle   -0.20561336

 Energy gradients wrt nuclear displacements
 ==========================================

     Atom      Cartesian (a.u./angstrom)
                 X         Y         Z
 ----------------------------------------
     1 Pa    0.082542 -0.235427  0.000000
     2 O     0.311609  0.099064  0.000000
     3 H     0.042919  0.099094  0.000000
     4 Cl    0.182880  0.303249  0.000000
     5 Cl    0.312737 -0.756679  0.000000
     6 O    -0.327777  0.122795  0.000000
     7 H     0.020522 -0.016699  0.000000
     8 H    -0.052454  0.015623  0.000000
     9 O    -0.319354 -0.204213  0.000000
    10 H    -0.061804  0.047862  0.000000
    11 H    -0.040048 -0.032489  0.000000
    12 O    -0.143725  0.485823  0.000000
    13 H    -0.008048  0.071997  0.000000
 ----------------------------------------
 Mulliken charges used for AMS results%charges...

 dE(predicted):    -0.83969E-01, dE(actual):    -0.87431E-01, Trust radius:    0.400000, all in a.u.
 
----------------------------------------------------------------------
Geometry Convergence after Step   2       (Hartree/Angstrom,Angstrom)
----------------------------------------------------------------------
current energy                               -2.22925827 Hartree
energy change                      -0.08743118     0.00013000    F
constrained gradient max            0.75606494     0.00100000    F
constrained gradient rms            0.19723632     0.00066667    F
gradient max                        0.75606494
gradient rms                        0.19723632
cart. step max                      0.09476366     0.01000000    F
cart. step rms                      0.03332460     0.00666667    F
 
 
--------
Geometry
--------
Formula: H6Cl2O4Pa
Atoms
  Index Symbol   x (angstrom)   y (angstrom)   z (angstrom)
      1     Pa     0.64568474    -0.21026519    -0.00000000       adf.R=2.200
      2      O     0.52375326     2.00834437     0.00000000       adf.R=1.517
      3      H    -2.12936300    -1.56440655     0.00000000       adf.R=1.350
      4     Cl     0.69683530    -2.86442905     0.00000000       adf.R=1.725
      5     Cl    -2.00359818    -0.05230150     0.00000000       adf.R=1.725
      6      O     2.27812685     1.39604128     0.00000000       adf.R=1.517
      7      H     2.12635095     2.35103236     0.00000000       adf.R=1.350
      8      H     3.24207280     1.23183220     0.00000000       adf.R=1.350
      9      O     2.39894914    -1.71911266     0.00000000       adf.R=1.517
     10      H     2.20165355    -2.69875786     0.00000000       adf.R=1.350
     11      H     3.36616308    -1.59479951     0.00000000       adf.R=1.350
     12      O    -1.14449917    -1.65201630     0.00000000       adf.R=1.517
     13      H    -0.92744482    -2.61905374     0.00000000       adf.R=1.350
 
Total System Charge             1.00000
Bonding info available!
 
 *** GO1_GOStep3 ***

 SOLVATION
-------------------------------------------

  The Delley construction of COSMO surface surface is calculated

       Division Level for Surface Triangles (NDIV)                  3
       Final Division Level for Triangles (NFDIV)                   1
       Radius of the Solvent (RSOL)                           1.93000 angstr
  Dielectric Constant (EPSL)                                 78.39000

       COSMO equation is solved iteratively-               conjugate-gradient

       Maximun of Iterations for Charges (NCIX)                  1000
       Criterion for Charge convergence (CCNV)                1.0E-08

  COSMO charges included variationally in SCF

       COSMO included at every SCF cycle

  Geometry-dependent empirical factor                         0.00000

  C-Matrix calculated in cspmtx

  In cspmtx, C-Matrix calculated using fitted potential

-------------------------------------------



 -------------------------------------------
  COSMO surface
  Area             =          537.046
  Volume           =          908.768
  Number of Points =         1405
 -------------------------------------------



 ======================
 RI Hartree-Fock Scheme
 ======================
  
 Fit Set Quality     : NORMAL
 Threshold Quality   : NORMAL
 Integration Quality : NORMAL
 Fit Generation Method : AUTO
 Response Quality    : DEFAULT
 Is Range Separated  :  F
 
 RIHartreeFock Dependency: number of modified vectors:           0
 cosmo_calcen: 0.5 (esolb+esolc) (Hartrees) =   -0.203553

 Solvation energy (screening term,uncorrected) =   -127.731364 kcal/mol

 Solvation energy (dispersion and cavitation terms) =      1.004235 kcal/mol
 Solvation Energy Contributions (Hartrees)
          esola   esolb+esolc
     0.20355286   -0.40710573
 esol last cycle   -0.20355286
  
 Hartree-Fock exchange energy:   -556.513703105647     
 cosmo_calcen: 0.5 (esolb+esolc) (Hartrees) =   -0.203553

 Solvation energy (screening term,uncorrected) =   -127.731300 kcal/mol

 Solvation energy (dispersion and cavitation terms) =      1.004235 kcal/mol
 Solvation Energy Contributions (Hartrees)
          esola   esolb+esolc
     0.20355276   -0.40710553
 esol last cycle   -0.20355276

 Energy gradients wrt nuclear displacements
 ==========================================

     Atom      Cartesian (a.u./angstrom)
                 X         Y         Z
 ----------------------------------------
     1 Pa    0.098248 -0.218846  0.000000
     2 O     0.231205  0.138375  0.000000
     3 H    -0.004169  0.061837  0.000000
     4 Cl    0.112595  0.264087  0.000000
     5 Cl    0.243233 -0.606991  0.000000
     6 O    -0.275740  0.089800  0.000000
     7 H     0.017166 -0.007901  0.000000
     8 H    -0.025287  0.007776  0.000000
     9 O    -0.269963 -0.163033  0.000000
    10 H    -0.047219  0.015766  0.000000
    11 H    -0.019331 -0.026666  0.000000
    12 O    -0.074073  0.426029  0.000000
    13 H     0.013335  0.019768  0.000000
 ----------------------------------------
 Mulliken charges used for AMS results%charges...

 dE(predicted):    -0.15041E+00, dE(actual):    -0.14996E+00, Trust radius:    0.800000, all in a.u.
 
----------------------------------------------------------------------
Geometry Convergence after Step   3       (Hartree/Angstrom,Angstrom)
----------------------------------------------------------------------
current energy                               -2.37921342 Hartree
energy change                      -0.14995515     0.00013000    F
constrained gradient max            0.60660297     0.00100000    F
constrained gradient rms            0.16170109     0.00066667    F
gradient max                        0.60660297
gradient rms                        0.16170109
cart. step max                      0.18269886     0.01000000    F
cart. step rms                      0.07014475     0.00666667    F
 
 
--------
Geometry
--------
Formula: H6Cl2O4Pa
Atoms
  Index Symbol   x (angstrom)   y (angstrom)   z (angstrom)
      1     Pa     0.58266259    -0.20943918    -0.00000000       adf.R=2.200
      2      O     0.41771304     1.86750969     0.00000000       adf.R=1.517
      3      H    -2.16789455    -1.52473972     0.00000000       adf.R=1.350
      4     Cl     0.72091921    -2.89851134     0.00000000       adf.R=1.725
      5     Cl    -2.08738462     0.13039736     0.00000000       adf.R=1.725
      6      O     2.32272681     1.28914481     0.00000000       adf.R=1.517
      7      H     2.16743744     2.24708220     0.00000000       adf.R=1.350
      8      H     3.29043722     1.11694042     0.00000000       adf.R=1.350
      9      O     2.46071914    -1.60645986     0.00000000       adf.R=1.517
     10      H     2.28360475    -2.62729056     0.00000000       adf.R=1.350
     11      H     3.42441352    -1.41512606     0.00000000       adf.R=1.350
     12      O    -1.18373359    -1.69013088     0.00000000       adf.R=1.517
     13      H    -0.95693647    -2.66726902     0.00000000       adf.R=1.350
 
Total System Charge             1.00000
Bonding info available!
 
 *** GO1_GOStep4 ***

 SOLVATION
-------------------------------------------

  The Delley construction of COSMO surface surface is calculated

       Division Level for Surface Triangles (NDIV)                  3
       Final Division Level for Triangles (NFDIV)                   1
       Radius of the Solvent (RSOL)                           1.93000 angstr
  Dielectric Constant (EPSL)                                 78.39000

       COSMO equation is solved iteratively-               conjugate-gradient

       Maximun of Iterations for Charges (NCIX)                  1000
       Criterion for Charge convergence (CCNV)                1.0E-08

  COSMO charges included variationally in SCF

       COSMO included at every SCF cycle

  Geometry-dependent empirical factor                         0.00000

  C-Matrix calculated in cspmtx

  In cspmtx, C-Matrix calculated using fitted potential

-------------------------------------------



 -------------------------------------------
  COSMO surface
  Area             =          546.010
  Volume           =          928.512
  Number of Points =         1418
 -------------------------------------------



 ======================
 RI Hartree-Fock Scheme
 ======================
  
 Fit Set Quality     : NORMAL
 Threshold Quality   : NORMAL
 Integration Quality : NORMAL
 Fit Generation Method : AUTO
 Response Quality    : DEFAULT
 Is Range Separated  :  F
 
 RIHartreeFock Dependency: number of modified vectors:           0
 cosmo_calcen: 0.5 (esolb+esolc) (Hartrees) =   -0.193000

 Solvation energy (screening term,uncorrected) =   -121.109357 kcal/mol

 Solvation energy (dispersion and cavitation terms) =      1.020997 kcal/mol
 Solvation Energy Contributions (Hartrees)
          esola   esolb+esolc
     0.19300003   -0.38600005
 esol last cycle   -0.19300003
  
 Hartree-Fock exchange energy:   -556.435359181732     
 cosmo_calcen: 0.5 (esolb+esolc) (Hartrees) =   -0.193000

 Solvation energy (screening term,uncorrected) =   -121.109237 kcal/mol

 Solvation energy (dispersion and cavitation terms) =      1.020997 kcal/mol
 Solvation Energy Contributions (Hartrees)
          esola   esolb+esolc
     0.19299983   -0.38599967
 esol last cycle   -0.19299983

 Energy gradients wrt nuclear displacements
 ==========================================

     Atom      Cartesian (a.u./angstrom)
                 X         Y         Z
 ----------------------------------------
     1 Pa    0.087951 -0.196117  0.000000
     2 O     0.126672  0.157318  0.000000
     3 H    -0.025821  0.025179  0.000000
     4 Cl    0.036788  0.198876  0.000000
     5 Cl    0.131462 -0.327913  0.000000
     6 O    -0.195025  0.045426  0.000000
     7 H     0.009519  0.000241  0.000000
     8 H    -0.002172 -0.000672  0.000000
     9 O    -0.186163 -0.085753  0.000000
    10 H    -0.035560 -0.034537  0.000000
    11 H     0.003148 -0.013049  0.000000
    12 O     0.017732  0.249904  0.000000
    13 H     0.031470 -0.018903  0.000000
 ----------------------------------------
 Mulliken charges used for AMS results%charges...

 dE(predicted):    -0.21461E+00, dE(actual):    -0.21512E+00, Trust radius:    1.000000, all in a.u.
 
----------------------------------------------------------------------
Geometry Convergence after Step   4       (Hartree/Angstrom,Angstrom)
----------------------------------------------------------------------
current energy                               -2.59433221 Hartree
energy change                      -0.21511879     0.00013000    F
constrained gradient max            0.32768655     0.00100000    F
constrained gradient rms            0.10164822     0.00066667    F
gradient max                        0.32768655
gradient rms                        0.10164822
cart. step max                      0.21039321     0.01000000    F
cart. step rms                      0.07966430     0.00666667    F
 
 
--------
Geometry
--------
Formula: H6Cl2O4Pa
Atoms
  Index Symbol   x (angstrom)   y (angstrom)   z (angstrom)
      1     Pa     0.50823555    -0.20217860    -0.00000000       adf.R=2.200
      2      O     0.32524656     1.68652906     0.00000000       adf.R=1.517
      3      H    -2.21251234    -1.49760334     0.00000000       adf.R=1.350
      4     Cl     0.75328249    -2.92230027     0.00000000       adf.R=1.725
      5     Cl    -2.18068790     0.28594996     0.00000000       adf.R=1.725
      6      O     2.38544331     1.16045762     0.00000000       adf.R=1.517
      7      H     2.23425057     2.11967154     0.00000000       adf.R=1.350
      8      H     3.34964210     0.97864949     0.00000000       adf.R=1.350
      9      O     2.51707354    -1.46277386     0.00000000       adf.R=1.517
     10      H     2.36634655    -2.50099004     0.00000000       adf.R=1.350
     11      H     3.46355295    -1.20473285     0.00000000       adf.R=1.350
     12      O    -1.23901855    -1.72730124     0.00000000       adf.R=1.517
     13      H    -0.99617033    -2.70126962     0.00000000       adf.R=1.350
 
Total System Charge             1.00000
Bonding info available!
 
 *** GO1_GOStep5 ***

 SOLVATION
-------------------------------------------

  The Delley construction of COSMO surface surface is calculated

       Division Level for Surface Triangles (NDIV)                  3
       Final Division Level for Triangles (NFDIV)                   1
       Radius of the Solvent (RSOL)                           1.93000 angstr
  Dielectric Constant (EPSL)                                 78.39000

       COSMO equation is solved iteratively-               conjugate-gradient

       Maximun of Iterations for Charges (NCIX)                  1000
       Criterion for Charge convergence (CCNV)                1.0E-08

  COSMO charges included variationally in SCF

       COSMO included at every SCF cycle

  Geometry-dependent empirical factor                         0.00000

  C-Matrix calculated in cspmtx

  In cspmtx, C-Matrix calculated using fitted potential

-------------------------------------------



 -------------------------------------------
  COSMO surface
  Area             =          548.481
  Volume           =          933.719
  Number of Points =         1422
 -------------------------------------------



 ======================
 RI Hartree-Fock Scheme
 ======================
  
 Fit Set Quality     : NORMAL
 Threshold Quality   : NORMAL
 Integration Quality : NORMAL
 Fit Generation Method : AUTO
 Response Quality    : DEFAULT
 Is Range Separated  :  F
 
 RIHartreeFock Dependency: number of modified vectors:           0
 cosmo_calcen: 0.5 (esolb+esolc) (Hartrees) =   -0.182639

 Solvation energy (screening term,uncorrected) =   -114.608020 kcal/mol

 Solvation energy (dispersion and cavitation terms) =      1.025616 kcal/mol
 Solvation Energy Contributions (Hartrees)
          esola   esolb+esolc
     0.18263949   -0.36527897
 esol last cycle   -0.18263949
  
 Hartree-Fock exchange energy:   -556.457895825591     
 cosmo_calcen: 0.5 (esolb+esolc) (Hartrees) =   -0.182639

 Solvation energy (screening term,uncorrected) =   -114.608027 kcal/mol

 Solvation energy (dispersion and cavitation terms) =      1.025616 kcal/mol
 Solvation Energy Contributions (Hartrees)
          esola   esolb+esolc
     0.18263950   -0.36527899
 esol last cycle   -0.18263950

 Energy gradients wrt nuclear displacements
 ==========================================

     Atom      Cartesian (a.u./angstrom)
                 X         Y         Z
 ----------------------------------------
     1 Pa    0.057706 -0.094211  0.000000
     2 O     0.061259  0.069323  0.000000
     3 H    -0.028439  0.015678  0.000000
     4 Cl   -0.000545  0.144701  0.000000
     5 Cl    0.077946 -0.168229  0.000000
     6 O    -0.122006  0.012404  0.000000
     7 H    -0.000964  0.000539  0.000000
     8 H     0.006741 -0.006368  0.000000
     9 O    -0.115423 -0.025350  0.000000
    10 H    -0.030445 -0.060361  0.000000
    11 H     0.008119  0.000640  0.000000
    12 O     0.049774  0.139864  0.000000
    13 H     0.036276 -0.028631  0.000000
 ----------------------------------------
 Mulliken charges used for AMS results%charges...
 Rebuilding optimization coordinates

 dE(predicted):    -0.14147E+00, dE(actual):    -0.13471E+00, Trust radius:    1.000000, all in a.u.
 
----------------------------------------------------------------------
Geometry Convergence after Step   5       (Hartree/Angstrom,Angstrom)
----------------------------------------------------------------------
current energy                               -2.72903874 Hartree
energy change                      -0.13470653     0.00013000    F
constrained gradient max            0.16809360     0.00100000    F
constrained gradient rms            0.05884290     0.00066667    F
gradient max                        0.16809360
gradient rms                        0.05884290
cart. step max                      0.21087375     0.01000000    F
cart. step rms                      0.08519510     0.00666667    F
 
 
--------
Geometry
--------
Formula: H6Cl2O4Pa
Atoms
  Index Symbol   x (angstrom)   y (angstrom)   z (angstrom)
      1     Pa     0.42533482    -0.19757117    -0.00000000       adf.R=2.200
      2      O     0.24673841     1.51152245     0.00000000       adf.R=1.517
      3      H    -2.26131610    -1.48785051     0.00000000       adf.R=1.350
      4     Cl     0.79517709    -2.95692019     0.00000000       adf.R=1.725
      5     Cl    -2.29219726     0.43417059     0.00000000       adf.R=1.725
      6      O     2.46087159     1.02331221     0.00000000       adf.R=1.517
      7      H     2.33112807     1.98542113     0.00000000       adf.R=1.350
      8      H     3.41485902     0.83621268     0.00000000       adf.R=1.350
      9      O     2.57308645    -1.30368495     0.00000000       adf.R=1.517
     10      H     2.44929642    -2.32695890     0.00000000       adf.R=1.350
     11      H     3.49537697    -0.99385910     0.00000000       adf.R=1.350
     12      O    -1.31221432    -1.77722114     0.00000000       adf.R=1.517
     13      H    -1.05145665    -2.73446525     0.00000000       adf.R=1.350
 
Total System Charge             1.00000
Bonding info available!
 
 *** GO1_GOStep6 ***

 SOLVATION
-------------------------------------------

  The Delley construction of COSMO surface surface is calculated

       Division Level for Surface Triangles (NDIV)                  3
       Final Division Level for Triangles (NFDIV)                   1
       Radius of the Solvent (RSOL)                           1.93000 angstr
  Dielectric Constant (EPSL)                                 78.39000

       COSMO equation is solved iteratively-               conjugate-gradient

       Maximun of Iterations for Charges (NCIX)                  1000
       Criterion for Charge convergence (CCNV)                1.0E-08

  COSMO charges included variationally in SCF

       COSMO included at every SCF cycle

  Geometry-dependent empirical factor                         0.00000

  C-Matrix calculated in cspmtx

  In cspmtx, C-Matrix calculated using fitted potential

-------------------------------------------



 -------------------------------------------
  COSMO surface
  Area             =          549.930
  Volume           =          936.507
  Number of Points =         1436
 -------------------------------------------



 ======================
 RI Hartree-Fock Scheme
 ======================
  
 Fit Set Quality     : NORMAL
 Threshold Quality   : NORMAL
 Integration Quality : NORMAL
 Fit Generation Method : AUTO
 Response Quality    : DEFAULT
 Is Range Separated  :  F
 
 RIHartreeFock Dependency: number of modified vectors:           0
 cosmo_calcen: 0.5 (esolb+esolc) (Hartrees) =   -0.178646

 Solvation energy (screening term,uncorrected) =   -112.102014 kcal/mol

 Solvation energy (dispersion and cavitation terms) =      1.028326 kcal/mol
 Solvation Energy Contributions (Hartrees)
          esola   esolb+esolc
     0.17864591   -0.35729182
 esol last cycle   -0.17864591
  
 Hartree-Fock exchange energy:   -556.558841935243     
 cosmo_calcen: 0.5 (esolb+esolc) (Hartrees) =   -0.178646

 Solvation energy (screening term,uncorrected) =   -112.102099 kcal/mol

 Solvation energy (dispersion and cavitation terms) =      1.028326 kcal/mol
 Solvation Energy Contributions (Hartrees)
          esola   esolb+esolc
     0.17864605   -0.35729209
 esol last cycle   -0.17864605

 Energy gradients wrt nuclear displacements
 ==========================================

     Atom      Cartesian (a.u./angstrom)
                 X         Y         Z
 ----------------------------------------
     1 Pa    0.007234  0.178327  0.000000
     2 O     0.036708 -0.194112  0.000000
     3 H    -0.016069  0.016255  0.000000
     4 Cl   -0.013339  0.092093  0.000000
     5 Cl    0.046875 -0.072493  0.000000
     6 O    -0.050941 -0.032541  0.000000
     7 H    -0.007758 -0.003437  0.000000
     8 H     0.001541 -0.011116  0.000000
     9 O    -0.052281  0.028385  0.000000
    10 H    -0.029439 -0.056222  0.000000
    11 H     0.001805  0.015969  0.000000
    12 O     0.041111  0.056251  0.000000
    13 H     0.034552 -0.017359  0.000000
 ----------------------------------------
 Mulliken charges used for AMS results%charges...

 dE(predicted):    -0.60089E-01, dE(actual):    -0.55231E-01, Trust radius:    1.000000, all in a.u.
 
----------------------------------------------------------------------
Geometry Convergence after Step   6       (Hartree/Angstrom,Angstrom)
----------------------------------------------------------------------
current energy                               -2.78426924 Hartree
energy change                      -0.05523051     0.00013000    F
constrained gradient max            0.19410258     0.00100000    F
constrained gradient rms            0.05202069     0.00066667    F
gradient max                        0.19410258
gradient rms                        0.05202069
cart. step max                      0.12054689     0.01000000    F
cart. step rms                      0.04041755     0.00666667    F
 
 
--------
Geometry
--------
Formula: H6Cl2O4Pa
Atoms
  Index Symbol   x (angstrom)   y (angstrom)   z (angstrom)
      1     Pa     0.44909030    -0.23083474    -0.00000000       adf.R=2.200
      2      O     0.23873028     1.57913768     0.00000000       adf.R=1.517
      3      H    -2.25530452    -1.48433198     0.00000000       adf.R=1.350
      4     Cl     0.78173054    -3.01192748     0.00000000       adf.R=1.725
      5     Cl    -2.27114189     0.44561226     0.00000000       adf.R=1.725
      6      O     2.45305281     1.10360526     0.00000000       adf.R=1.517
      7      H     2.30270191     2.06301247     0.00000000       adf.R=1.350
      8      H     3.40961066     0.95675957     0.00000000       adf.R=1.350
      9      O     2.59479362    -1.38301452     0.00000000       adf.R=1.517
     10      H     2.45206029    -2.38063448     0.00000000       adf.R=1.350
     11      H     3.52388356    -1.11192408     0.00000000       adf.R=1.350
     12      O    -1.32290043    -1.79068666     0.00000000       adf.R=1.517
     13      H    -1.08162265    -2.74266544     0.00000000       adf.R=1.350
 
Total System Charge             1.00000
Bonding info available!
 
 *** GO1_GOStep7 ***

 SOLVATION
-------------------------------------------

  The Delley construction of COSMO surface surface is calculated

       Division Level for Surface Triangles (NDIV)                  3
       Final Division Level for Triangles (NFDIV)                   1
       Radius of the Solvent (RSOL)                           1.93000 angstr
  Dielectric Constant (EPSL)                                 78.39000

       COSMO equation is solved iteratively-               conjugate-gradient

       Maximun of Iterations for Charges (NCIX)                  1000
       Criterion for Charge convergence (CCNV)                1.0E-08

  COSMO charges included variationally in SCF

       COSMO included at every SCF cycle

  Geometry-dependent empirical factor                         0.00000

  C-Matrix calculated in cspmtx

  In cspmtx, C-Matrix calculated using fitted potential

-------------------------------------------



 -------------------------------------------
  COSMO surface
  Area             =          556.674
  Volume           =          949.534
  Number of Points =         1448
 -------------------------------------------



 ======================
 RI Hartree-Fock Scheme
 ======================
  
 Fit Set Quality     : NORMAL
 Threshold Quality   : NORMAL
 Integration Quality : NORMAL
 Fit Generation Method : AUTO
 Response Quality    : DEFAULT
 Is Range Separated  :  F
 
 RIHartreeFock Dependency: number of modified vectors:           0
 cosmo_calcen: 0.5 (esolb+esolc) (Hartrees) =   -0.184283

 Solvation energy (screening term,uncorrected) =   -115.639620 kcal/mol

 Solvation energy (dispersion and cavitation terms) =      1.040936 kcal/mol
 Solvation Energy Contributions (Hartrees)
          esola   esolb+esolc
     0.18428344   -0.36856689
 esol last cycle   -0.18428344
  
 Hartree-Fock exchange energy:   -556.459594914707     
 cosmo_calcen: 0.5 (esolb+esolc) (Hartrees) =   -0.184283

 Solvation energy (screening term,uncorrected) =   -115.639590 kcal/mol

 Solvation energy (dispersion and cavitation terms) =      1.040936 kcal/mol
 Solvation Energy Contributions (Hartrees)
          esola   esolb+esolc
     0.18428340   -0.36856680
 esol last cycle   -0.18428340

 Energy gradients wrt nuclear displacements
 ==========================================

     Atom      Cartesian (a.u./angstrom)
                 X         Y         Z
 ----------------------------------------
     1 Pa    0.027844 -0.016508  0.000000
     2 O     0.018194  0.002689  0.000000
     3 H     0.000803  0.011405  0.000000
     4 Cl   -0.006076  0.081944  0.000000
     5 Cl    0.039758 -0.064659  0.000000
     6 O    -0.045409 -0.008743  0.000000
     7 H     0.000240 -0.000574  0.000000
     8 H    -0.009656  0.000138  0.000000
     9 O    -0.039226 -0.012045  0.000000
    10 H    -0.025175 -0.031826  0.000000
    11 H    -0.007747  0.003135  0.000000
    12 O     0.017438  0.038781  0.000000
    13 H     0.029011 -0.003737  0.000000
 ----------------------------------------
 Mulliken charges used for AMS results%charges...

 dE(predicted):    -0.16095E-01, dE(actual):    -0.17185E-01, Trust radius:    1.000000, all in a.u.
 
----------------------------------------------------------------------
Geometry Convergence after Step   7       (Hartree/Angstrom,Angstrom)
----------------------------------------------------------------------
current energy                               -2.80145471 Hartree
energy change                      -0.01718546     0.00013000    F
constrained gradient max            0.08194442     0.00100000    F
constrained gradient rms            0.02392622     0.00066667    F
gradient max                        0.08194442
gradient rms                        0.02392622
cart. step max                      0.07328949     0.01000000    F
cart. step rms                      0.02990360     0.00666667    F
 
 
--------
Geometry
--------
Formula: H6Cl2O4Pa
Atoms
  Index Symbol   x (angstrom)   y (angstrom)   z (angstrom)
      1     Pa     0.42254702    -0.25260578    -0.00000000       adf.R=2.200
      2      O     0.20649900     1.55807234     0.00000000       adf.R=1.517
      3      H    -2.28330979    -1.48598686     0.00000000       adf.R=1.350
      4     Cl     0.79346043    -3.07385469     0.00000000       adf.R=1.725
      5     Cl    -2.31853504     0.51890175     0.00000000       adf.R=1.725
      6      O     2.48879903     1.09953432     0.00000000       adf.R=1.517
      7      H     2.33475255     2.05873341     0.00000000       adf.R=1.350
      8      H     3.44765373     0.97554958     0.00000000       adf.R=1.350
      9      O     2.63450387    -1.36075704     0.00000000       adf.R=1.517
     10      H     2.49361623    -2.32978601     0.00000000       adf.R=1.350
     11      H     3.56369163    -1.09869871     0.00000000       adf.R=1.350
     12      O    -1.37106785    -1.82678612     0.00000000       adf.R=1.517
     13      H    -1.13792632    -2.77020836     0.00000000       adf.R=1.350
 
Total System Charge             1.00000
Bonding info available!
 
 *** GO1_GOStep8 ***

 SOLVATION
-------------------------------------------

  The Delley construction of COSMO surface surface is calculated

       Division Level for Surface Triangles (NDIV)                  3
       Final Division Level for Triangles (NFDIV)                   1
       Radius of the Solvent (RSOL)                           1.93000 angstr
  Dielectric Constant (EPSL)                                 78.39000

       COSMO equation is solved iteratively-               conjugate-gradient

       Maximun of Iterations for Charges (NCIX)                  1000
       Criterion for Charge convergence (CCNV)                1.0E-08

  COSMO charges included variationally in SCF

       COSMO included at every SCF cycle

  Geometry-dependent empirical factor                         0.00000

  C-Matrix calculated in cspmtx

  In cspmtx, C-Matrix calculated using fitted potential

-------------------------------------------



 -------------------------------------------
  COSMO surface
  Area             =          563.441
  Volume           =          961.561
  Number of Points =         1462
 -------------------------------------------



 ======================
 RI Hartree-Fock Scheme
 ======================
  
 Fit Set Quality     : NORMAL
 Threshold Quality   : NORMAL
 Integration Quality : NORMAL
 Fit Generation Method : AUTO
 Response Quality    : DEFAULT
 Is Range Separated  :  F
 
 RIHartreeFock Dependency: number of modified vectors:           0
 cosmo_calcen: 0.5 (esolb+esolc) (Hartrees) =   -0.187913

 Solvation energy (screening term,uncorrected) =   -117.917115 kcal/mol

 Solvation energy (dispersion and cavitation terms) =      1.053590 kcal/mol
 Solvation Energy Contributions (Hartrees)
          esola   esolb+esolc
     0.18791286   -0.37582573
 esol last cycle   -0.18791286
  
 Hartree-Fock exchange energy:   -556.427966665586     
 cosmo_calcen: 0.5 (esolb+esolc) (Hartrees) =   -0.187913

 Solvation energy (screening term,uncorrected) =   -117.917100 kcal/mol

 Solvation energy (dispersion and cavitation terms) =      1.053590 kcal/mol
 Solvation Energy Contributions (Hartrees)
          esola   esolb+esolc
     0.18791284   -0.37582568
 esol last cycle   -0.18791284

 Energy gradients wrt nuclear displacements
 ==========================================

     Atom      Cartesian (a.u./angstrom)
                 X         Y         Z
 ----------------------------------------
     1 Pa    0.019591 -0.022978  0.000000
     2 O     0.001993  0.016068  0.000000
     3 H     0.013870  0.009896  0.000000
     4 Cl   -0.004021  0.052598  0.000000
     5 Cl    0.025640 -0.032136  0.000000
     6 O    -0.024335 -0.012571  0.000000
     7 H     0.002432 -0.000154  0.000000
     8 H    -0.009840  0.002793  0.000000
     9 O    -0.016514 -0.031391  0.000000
    10 H    -0.019226  0.004029  0.000000
    11 H    -0.009863  0.002623  0.000000
    12 O    -0.004130  0.000203  0.000000
    13 H     0.024404  0.011021  0.000000
 ----------------------------------------
 Mulliken charges used for AMS results%charges...

 dE(predicted):    -0.11699E-01, dE(actual):    -0.17971E-01, Trust radius:    1.000000, all in a.u.
 
----------------------------------------------------------------------
Geometry Convergence after Step   8       (Hartree/Angstrom,Angstrom)
----------------------------------------------------------------------
current energy                               -2.81942605 Hartree
energy change                      -0.01797134     0.00013000    F
constrained gradient max            0.05259737     0.00100000    F
constrained gradient rms            0.01542573     0.00066667    F
gradient max                        0.05259737
gradient rms                        0.01542573
cart. step max                      0.08919389     0.01000000    F
cart. step rms                      0.03906060     0.00666667    F
 
 
--------
Geometry
--------
Formula: H6Cl2O4Pa
Atoms
  Index Symbol   x (angstrom)   y (angstrom)   z (angstrom)
      1     Pa     0.38746654    -0.27522689    -0.00000000       adf.R=2.200
      2      O     0.17533478     1.52300450     0.00000000       adf.R=1.517
      3      H    -2.33127690    -1.49168391     0.00000000       adf.R=1.350
      4     Cl     0.80809183    -3.15239096     0.00000000       adf.R=1.725
      5     Cl    -2.38696120     0.60809565     0.00000000       adf.R=1.725
      6      O     2.54107480     1.10027438     0.00000000       adf.R=1.517
      7      H     2.37478944     2.05798778     0.00000000       adf.R=1.350
      8      H     3.50617047     1.00267151     0.00000000       adf.R=1.350
      9      O     2.68213475    -1.32429955     0.00000000       adf.R=1.517
     10      H     2.54888768    -2.28051718     0.00000000       adf.R=1.350
     11      H     3.61718346    -1.07609080     0.00000000       adf.R=1.350
     12      O    -1.43219452    -1.86720236     0.00000000       adf.R=1.517
     13      H    -1.21601665    -2.81251432     0.00000000       adf.R=1.350
 
Total System Charge             1.00000
Bonding info available!
 
 *** GO1_GOStep9 ***

 SOLVATION
-------------------------------------------

  The Delley construction of COSMO surface surface is calculated

       Division Level for Surface Triangles (NDIV)                  3
       Final Division Level for Triangles (NFDIV)                   1
       Radius of the Solvent (RSOL)                           1.93000 angstr
  Dielectric Constant (EPSL)                                 78.39000

       COSMO equation is solved iteratively-               conjugate-gradient

       Maximun of Iterations for Charges (NCIX)                  1000
       Criterion for Charge convergence (CCNV)                1.0E-08

  COSMO charges included variationally in SCF

       COSMO included at every SCF cycle

  Geometry-dependent empirical factor                         0.00000

  C-Matrix calculated in cspmtx

  In cspmtx, C-Matrix calculated using fitted potential

-------------------------------------------



 -------------------------------------------
  COSMO surface
  Area             =          573.200
  Volume           =          978.437
  Number of Points =         1468
 -------------------------------------------



 ======================
 RI Hartree-Fock Scheme
 ======================
  
 Fit Set Quality     : NORMAL
 Threshold Quality   : NORMAL
 Integration Quality : NORMAL
 Fit Generation Method : AUTO
 Response Quality    : DEFAULT
 Is Range Separated  :  F
 
 RIHartreeFock Dependency: number of modified vectors:           0
 cosmo_calcen: 0.5 (esolb+esolc) (Hartrees) =   -0.192298

 Solvation energy (screening term,uncorrected) =   -120.668573 kcal/mol

 Solvation energy (dispersion and cavitation terms) =      1.071840 kcal/mol
 Solvation Energy Contributions (Hartrees)
          esola   esolb+esolc
     0.19229759   -0.38459518
 esol last cycle   -0.19229759
  
 Hartree-Fock exchange energy:   -556.383637323395     
 cosmo_calcen: 0.5 (esolb+esolc) (Hartrees) =   -0.192298

 Solvation energy (screening term,uncorrected) =   -120.668550 kcal/mol

 Solvation energy (dispersion and cavitation terms) =      1.071840 kcal/mol
 Solvation Energy Contributions (Hartrees)
          esola   esolb+esolc
     0.19229755   -0.38459511
 esol last cycle   -0.19229755

 Energy gradients wrt nuclear displacements
 ==========================================

     Atom      Cartesian (a.u./angstrom)
                 X         Y         Z
 ----------------------------------------
     1 Pa    0.009219 -0.008771  0.000000
     2 O    -0.009834  0.011965  0.000000
     3 H     0.014074  0.012562  0.000000
     4 Cl   -0.002687  0.021598  0.000000
     5 Cl    0.012710 -0.004799  0.000000
     6 O    -0.009941 -0.017667  0.000000
     7 H     0.002607  0.000371  0.000000
     8 H    -0.002690  0.003233  0.000000
     9 O    -0.001009 -0.032782  0.000000
    10 H    -0.012798  0.024625  0.000000
    11 H    -0.004124  0.002579  0.000000
    12 O    -0.017730 -0.025409  0.000000
    13 H     0.022204  0.012494  0.000000
 ----------------------------------------
 Mulliken charges used for AMS results%charges...

 dE(predicted):    -0.87587E-02, dE(actual):    -0.11462E-01, Trust radius:    1.000000, all in a.u.
 
----------------------------------------------------------------------
Geometry Convergence after Step   9       (Hartree/Angstrom,Angstrom)
----------------------------------------------------------------------
current energy                               -2.83088801 Hartree
energy change                      -0.01146196     0.00013000    F
constrained gradient max            0.03270331     0.00100000    F
constrained gradient rms            0.01169034     0.00066667    F
gradient max                        0.03270331
gradient rms                        0.01169034
cart. step max                      0.04927134     0.01000000    F
cart. step rms                      0.02128690     0.00666667    F
 
 
--------
Geometry
--------
Formula: H6Cl2O4Pa
Atoms
  Index Symbol   x (angstrom)   y (angstrom)   z (angstrom)
      1     Pa     0.37435707    -0.28697603    -0.00000000       adf.R=2.200
      2      O     0.16663407     1.50248555     0.00000000       adf.R=1.517
      3      H    -2.35990824    -1.49772961     0.00000000       adf.R=1.350
      4     Cl     0.81086344    -3.19792569     0.00000000       adf.R=1.725
      5     Cl    -2.42444514     0.65000077     0.00000000       adf.R=1.725
      6      O     2.57117190     1.11967942     0.00000000       adf.R=1.517
      7      H     2.38925966     2.07470524     0.00000000       adf.R=1.350
      8      H     3.53953514     1.03826141     0.00000000       adf.R=1.350
      9      O     2.70684458    -1.31440323     0.00000000       adf.R=1.517
     10      H     2.58047923    -2.28021991     0.00000000       adf.R=1.350
     11      H     3.64650373    -1.07765221     0.00000000       adf.R=1.350
     12      O    -1.46132296    -1.88229537     0.00000000       adf.R=1.517
     13      H    -1.26528799    -2.83582249     0.00000000       adf.R=1.350
 
Total System Charge             1.00000
Bonding info available!
 
 *** GO1_GOStep10 ***

 SOLVATION
-------------------------------------------

  The Delley construction of COSMO surface surface is calculated

       Division Level for Surface Triangles (NDIV)                  3
       Final Division Level for Triangles (NFDIV)                   1
       Radius of the Solvent (RSOL)                           1.93000 angstr
  Dielectric Constant (EPSL)                                 78.39000

       COSMO equation is solved iteratively-               conjugate-gradient

       Maximun of Iterations for Charges (NCIX)                  1000
       Criterion for Charge convergence (CCNV)                1.0E-08

  COSMO charges included variationally in SCF

       COSMO included at every SCF cycle

  Geometry-dependent empirical factor                         0.00000

  C-Matrix calculated in cspmtx

  In cspmtx, C-Matrix calculated using fitted potential

-------------------------------------------



 -------------------------------------------
  COSMO surface
  Area             =          579.881
  Volume           =          989.695
  Number of Points =         1476
 -------------------------------------------



 ======================
 RI Hartree-Fock Scheme
 ======================
  
 Fit Set Quality     : NORMAL
 Threshold Quality   : NORMAL
 Integration Quality : NORMAL
 Fit Generation Method : AUTO
 Response Quality    : DEFAULT
 Is Range Separated  :  F
 
 RIHartreeFock Dependency: number of modified vectors:           0
 cosmo_calcen: 0.5 (esolb+esolc) (Hartrees) =   -0.194832

 Solvation energy (screening term,uncorrected) =   -122.259051 kcal/mol

 Solvation energy (dispersion and cavitation terms) =      1.084333 kcal/mol
 Solvation Energy Contributions (Hartrees)
          esola   esolb+esolc
     0.19483218   -0.38966436
 esol last cycle   -0.19483218
  
 Hartree-Fock exchange energy:   -556.353564302817     
 cosmo_calcen: 0.5 (esolb+esolc) (Hartrees) =   -0.194832

 Solvation energy (screening term,uncorrected) =   -122.259027 kcal/mol

 Solvation energy (dispersion and cavitation terms) =      1.084333 kcal/mol
 Solvation Energy Contributions (Hartrees)
          esola   esolb+esolc
     0.19483214   -0.38966428
 esol last cycle   -0.19483214

 Energy gradients wrt nuclear displacements
 ==========================================

     Atom      Cartesian (a.u./angstrom)
                 X         Y         Z
 ----------------------------------------
     1 Pa    0.005047  0.003791  0.000000
     2 O    -0.011835  0.005677  0.000000
     3 H     0.008846  0.014115  0.000000
     4 Cl   -0.002415  0.008380  0.000000
     5 Cl    0.007072  0.003722  0.000000
     6 O    -0.005504 -0.016464  0.000000
     7 H     0.001561  0.000790  0.000000
     8 H     0.000827  0.002767  0.000000
     9 O     0.005961 -0.011178  0.000000
    10 H    -0.010921  0.009456  0.000000
    11 H    -0.001035  0.000809  0.000000
    12 O    -0.018982 -0.026411  0.000000
    13 H     0.021379  0.004546  0.000000
 ----------------------------------------
 Mulliken charges used for AMS results%charges...
 Rebuilding optimization coordinates

 dE(predicted):    -0.21341E-02, dE(actual):    -0.31372E-02, Trust radius:    1.000000, all in a.u.
 
----------------------------------------------------------------------
Geometry Convergence after Step  10       (Hartree/Angstrom,Angstrom)
----------------------------------------------------------------------
current energy                               -2.83402518 Hartree
energy change                      -0.00313717     0.00013000    F
constrained gradient max            0.02653211     0.00100000    F
constrained gradient rms            0.00854635     0.00066667    F
gradient max                        0.02653211
gradient rms                        0.00854635
cart. step max                      0.04695442     0.01000000    F
cart. step rms                      0.01837349     0.00666667    F
 
 
--------
Geometry
--------
Formula: H6Cl2O4Pa
Atoms
  Index Symbol   x (angstrom)   y (angstrom)   z (angstrom)
      1     Pa     0.36749233    -0.29722780    -0.00000000       adf.R=2.200
      2      O     0.16967589     1.48842653     0.00000000       adf.R=1.517
      3      H    -2.38365511    -1.50912351     0.00000000       adf.R=1.350
      4     Cl     0.80970307    -3.23608317     0.00000000       adf.R=1.725
      5     Cl    -2.45819542     0.67409026     0.00000000       adf.R=1.725
      6      O     2.59779113     1.14750403     0.00000000       adf.R=1.517
      7      H     2.40003243     2.09910779     0.00000000       adf.R=1.350
      8      H     3.56799795     1.07697129     0.00000000       adf.R=1.350
      9      O     2.72327159    -1.31462152     0.00000000       adf.R=1.517
     10      H     2.60702394    -2.28984291     0.00000000       adf.R=1.350
     11      H     3.66672072    -1.08622128     0.00000000       adf.R=1.350
     12      O    -1.48093162    -1.88943244     0.00000000       adf.R=1.517
     13      H    -1.31224241    -2.85143943     0.00000000       adf.R=1.350
 
Total System Charge             1.00000
Bonding info available!
 
 *** GO1_GOStep11 ***

 SOLVATION
-------------------------------------------

  The Delley construction of COSMO surface surface is calculated

       Division Level for Surface Triangles (NDIV)                  3
       Final Division Level for Triangles (NFDIV)                   1
       Radius of the Solvent (RSOL)                           1.93000 angstr
  Dielectric Constant (EPSL)                                 78.39000

       COSMO equation is solved iteratively-               conjugate-gradient

       Maximun of Iterations for Charges (NCIX)                  1000
       Criterion for Charge convergence (CCNV)                1.0E-08

  COSMO charges included variationally in SCF

       COSMO included at every SCF cycle

  Geometry-dependent empirical factor                         0.00000

  C-Matrix calculated in cspmtx

  In cspmtx, C-Matrix calculated using fitted potential

-------------------------------------------



 -------------------------------------------
  COSMO surface
  Area             =          586.143
  Volume           =          999.623
  Number of Points =         1486
 -------------------------------------------



 ======================
 RI Hartree-Fock Scheme
 ======================
  
 Fit Set Quality     : NORMAL
 Threshold Quality   : NORMAL
 Integration Quality : NORMAL
 Fit Generation Method : AUTO
 Response Quality    : DEFAULT
 Is Range Separated  :  F
 
 RIHartreeFock Dependency: number of modified vectors:           0
 cosmo_calcen: 0.5 (esolb+esolc) (Hartrees) =   -0.197407

 Solvation energy (screening term,uncorrected) =   -123.874972 kcal/mol

 Solvation energy (dispersion and cavitation terms) =      1.096041 kcal/mol
 Solvation Energy Contributions (Hartrees)
          esola   esolb+esolc
     0.19740731   -0.39481463
 esol last cycle   -0.19740731
  
 Hartree-Fock exchange energy:   -556.329408353093     
 cosmo_calcen: 0.5 (esolb+esolc) (Hartrees) =   -0.197407

 Solvation energy (screening term,uncorrected) =   -123.874954 kcal/mol

 Solvation energy (dispersion and cavitation terms) =      1.096041 kcal/mol
 Solvation Energy Contributions (Hartrees)
          esola   esolb+esolc
     0.19740728   -0.39481457
 esol last cycle   -0.19740728

 Energy gradients wrt nuclear displacements
 ==========================================

     Atom      Cartesian (a.u./angstrom)
                 X         Y         Z
 ----------------------------------------
     1 Pa    0.002966  0.010361  0.000000
     2 O    -0.010536  0.004077  0.000000
     3 H     0.004030  0.012917  0.000000
     4 Cl   -0.002215 -0.000510  0.000000
     5 Cl    0.001966  0.007309  0.000000
     6 O    -0.003215 -0.011460  0.000000
     7 H     0.000245  0.000801  0.000000
     8 H     0.002869  0.001647  0.000000
     9 O     0.008491  0.004380  0.000000
    10 H    -0.008560 -0.003998  0.000000
    11 H     0.001774 -0.001389  0.000000
    12 O    -0.016282 -0.021682  0.000000
    13 H     0.018466 -0.002452  0.000000
 ----------------------------------------
 Mulliken charges used for AMS results%charges...

 dE(predicted):    -0.11419E-02, dE(actual):    -0.17298E-02, Trust radius:    1.000000, all in a.u.
 
----------------------------------------------------------------------
Geometry Convergence after Step  11       (Hartree/Angstrom,Angstrom)
----------------------------------------------------------------------
current energy                               -2.83575497 Hartree
energy change                      -0.00172978     0.00013000    F
constrained gradient max            0.02181035     0.00100000    F
constrained gradient rms            0.00699857     0.00066667    F
gradient max                        0.02181035
gradient rms                        0.00699857
cart. step max                      0.01454981     0.01000000    F
cart. step rms                      0.00497921     0.00666667    T
 
 
--------
Geometry
--------
Formula: H6Cl2O4Pa
Atoms
  Index Symbol   x (angstrom)   y (angstrom)   z (angstrom)
      1     Pa     0.36691197    -0.30026054    -0.00000000       adf.R=2.200
      2      O     0.17665898     1.48561293     0.00000000       adf.R=1.517
      3      H    -2.38932817    -1.51604305     0.00000000       adf.R=1.350
      4     Cl     0.80849944    -3.24400972     0.00000000       adf.R=1.725
      5     Cl    -2.46850264     0.67309482     0.00000000       adf.R=1.725
      6      O     2.60582056     1.15652236     0.00000000       adf.R=1.517
      7      H     2.40475880     2.10713735     0.00000000       adf.R=1.350
      8      H     3.57573302     1.08603922     0.00000000       adf.R=1.350
      9      O     2.72372025    -1.31628953     0.00000000       adf.R=1.517
     10      H     2.61357531    -2.29287473     0.00000000       adf.R=1.350
     11      H     3.66687632    -1.08609026     0.00000000       adf.R=1.350
     12      O    -1.48324713    -1.88830284     0.00000000       adf.R=1.517
     13      H    -1.32679222    -2.85242817     0.00000000       adf.R=1.350
 
Total System Charge             1.00000
Bonding info available!
 
 *** GO1_GOStep12 ***

 SOLVATION
-------------------------------------------

  The Delley construction of COSMO surface surface is calculated

       Division Level for Surface Triangles (NDIV)                  3
       Final Division Level for Triangles (NFDIV)                   1
       Radius of the Solvent (RSOL)                           1.93000 angstr
  Dielectric Constant (EPSL)                                 78.39000

       COSMO equation is solved iteratively-               conjugate-gradient

       Maximun of Iterations for Charges (NCIX)                  1000
       Criterion for Charge convergence (CCNV)                1.0E-08

  COSMO charges included variationally in SCF

       COSMO included at every SCF cycle

  Geometry-dependent empirical factor                         0.00000

  C-Matrix calculated in cspmtx

  In cspmtx, C-Matrix calculated using fitted potential

-------------------------------------------



 -------------------------------------------
  COSMO surface
  Area             =          587.353
  Volume           =         1001.516
  Number of Points =         1489
 -------------------------------------------



 ======================
 RI Hartree-Fock Scheme
 ======================
  
 Fit Set Quality     : NORMAL
 Threshold Quality   : NORMAL
 Integration Quality : NORMAL
 Fit Generation Method : AUTO
 Response Quality    : DEFAULT
 Is Range Separated  :  F
 
 RIHartreeFock Dependency: number of modified vectors:           0
 cosmo_calcen: 0.5 (esolb+esolc) (Hartrees) =   -0.198068

 Solvation energy (screening term,uncorrected) =   -124.289307 kcal/mol

 Solvation energy (dispersion and cavitation terms) =      1.098305 kcal/mol
 Solvation Energy Contributions (Hartrees)
          esola   esolb+esolc
     0.19806760   -0.39613520
 esol last cycle   -0.19806760
  
 Hartree-Fock exchange energy:   -556.326315504022     
 cosmo_calcen: 0.5 (esolb+esolc) (Hartrees) =   -0.198068

 Solvation energy (screening term,uncorrected) =   -124.289287 kcal/mol

 Solvation energy (dispersion and cavitation terms) =      1.098305 kcal/mol
 Solvation Energy Contributions (Hartrees)
          esola   esolb+esolc
     0.19806756   -0.39613513
 esol last cycle   -0.19806756

 Energy gradients wrt nuclear displacements
 ==========================================

     Atom      Cartesian (a.u./angstrom)
                 X         Y         Z
 ----------------------------------------
     1 Pa    0.002748  0.010931  0.000000
     2 O    -0.008463  0.004496  0.000000
     3 H     0.003003  0.010879  0.000000
     4 Cl   -0.002119 -0.002068  0.000000
     5 Cl    0.000120  0.006667  0.000000
     6 O    -0.002789 -0.009026  0.000000
     7 H    -0.000203  0.000536  0.000000
     8 H     0.002449  0.000946  0.000000
     9 O     0.008469  0.005453  0.000000
    10 H    -0.007591 -0.005194  0.000000
    11 H     0.001965 -0.002019  0.000000
    12 O    -0.013788 -0.018502  0.000000
    13 H     0.016199 -0.003097  0.000000
 ----------------------------------------
 Mulliken charges used for AMS results%charges...

 dE(predicted):    -0.31762E-03, dE(actual):    -0.59069E-03, Trust radius:    1.000000, all in a.u.
 
----------------------------------------------------------------------
Geometry Convergence after Step  12       (Hartree/Angstrom,Angstrom)
----------------------------------------------------------------------
current energy                               -2.83634566 Hartree
energy change                      -0.00059069     0.00013000    F
constrained gradient max            0.01861534     0.00100000    F
constrained gradient rms            0.00618963     0.00066667    F
gradient max                        0.01861534
gradient rms                        0.00618963
cart. step max                      0.06859139     0.01000000    F
cart. step rms                      0.02282929     0.00666667    F
 
 
--------
Geometry
--------
Formula: H6Cl2O4Pa
Atoms
  Index Symbol   x (angstrom)   y (angstrom)   z (angstrom)
      1     Pa     0.36745798    -0.31881697    -0.00000000       adf.R=2.200
      2      O     0.21555052     1.46603763     0.00000000       adf.R=1.517
      3      H    -2.41096739    -1.55064436     0.00000000       adf.R=1.350
      4     Cl     0.80189387    -3.27475332     0.00000000       adf.R=1.725
      5     Cl    -2.50826796     0.65762392     0.00000000       adf.R=1.725
      6      O     2.64211934     1.19596553     0.00000000       adf.R=1.517
      7      H     2.42876285     2.14247791     0.00000000       adf.R=1.350
      8      H     3.61003058     1.12455005     0.00000000       adf.R=1.350
      9      O     2.71653075    -1.32583156     0.00000000       adf.R=1.517
     10      H     2.64149782    -2.30477082     0.00000000       adf.R=1.350
     11      H     3.65378888    -1.07342257     0.00000000       adf.R=1.350
     12      O    -1.48832912    -1.87774871     0.00000000       adf.R=1.517
     13      H    -1.39538361    -2.84855887     0.00000000       adf.R=1.350
 
Total System Charge             1.00000
Bonding info available!
 
 *** GO1_GOStep13 ***

 SOLVATION
-------------------------------------------

  The Delley construction of COSMO surface surface is calculated

       Division Level for Surface Triangles (NDIV)                  3
       Final Division Level for Triangles (NFDIV)                   1
       Radius of the Solvent (RSOL)                           1.93000 angstr
  Dielectric Constant (EPSL)                                 78.39000

       COSMO equation is solved iteratively-               conjugate-gradient

       Maximun of Iterations for Charges (NCIX)                  1000
       Criterion for Charge convergence (CCNV)                1.0E-08

  COSMO charges included variationally in SCF

       COSMO included at every SCF cycle

  Geometry-dependent empirical factor                         0.00000

  C-Matrix calculated in cspmtx

  In cspmtx, C-Matrix calculated using fitted potential

-------------------------------------------



 -------------------------------------------
  COSMO surface
  Area             =          592.365
  Volume           =         1008.504
  Number of Points =         1496
 -------------------------------------------



 ======================
 RI Hartree-Fock Scheme
 ======================
  
 Fit Set Quality     : NORMAL
 Threshold Quality   : NORMAL
 Integration Quality : NORMAL
 Fit Generation Method : AUTO
 Response Quality    : DEFAULT
 Is Range Separated  :  F
 
 RIHartreeFock Dependency: number of modified vectors:           0
 cosmo_calcen: 0.5 (esolb+esolc) (Hartrees) =   -0.200691

 Solvation energy (screening term,uncorrected) =   -125.935255 kcal/mol

 Solvation energy (dispersion and cavitation terms) =      1.107676 kcal/mol
 Solvation Energy Contributions (Hartrees)
          esola   esolb+esolc
     0.20069058   -0.40138116
 esol last cycle   -0.20069058
  
 Hartree-Fock exchange energy:   -556.324670507205     
 cosmo_calcen: 0.5 (esolb+esolc) (Hartrees) =   -0.200690

 Solvation energy (screening term,uncorrected) =   -125.935184 kcal/mol

 Solvation energy (dispersion and cavitation terms) =      1.107676 kcal/mol
 Solvation Energy Contributions (Hartrees)
          esola   esolb+esolc
     0.20069047   -0.40138094
 esol last cycle   -0.20069047

 Energy gradients wrt nuclear displacements
 ==========================================

     Atom      Cartesian (a.u./angstrom)
                 X         Y         Z
 ----------------------------------------
     1 Pa    0.000463  0.015966  0.000000
     2 O     0.001749  0.001610  0.000000
     3 H    -0.000785 -0.002398  0.000000
     4 Cl   -0.001604 -0.007114  0.000000
     5 Cl   -0.006391  0.001690  0.000000
     6 O    -0.000906  0.001506  0.000000
     7 H    -0.001769 -0.000837  0.000000
     8 H    -0.000657 -0.002356  0.000000
     9 O     0.007794  0.003367  0.000000
    10 H    -0.003477 -0.004464  0.000000
    11 H     0.001545 -0.004223  0.000000
    12 O     0.001529 -0.000858  0.000000
    13 H     0.002509 -0.001889  0.000000
 ----------------------------------------
 Mulliken charges used for AMS results%charges...

 dE(predicted):    -0.14788E-02, dE(actual):    -0.15853E-02, Trust radius:    1.000000, all in a.u.
 
----------------------------------------------------------------------
Geometry Convergence after Step  13       (Hartree/Angstrom,Angstrom)
----------------------------------------------------------------------
current energy                               -2.83793097 Hartree
energy change                      -0.00158531     0.00013000    F
constrained gradient max            0.01594667     0.00100000    F
constrained gradient rms            0.00363047     0.00066667    F
gradient max                        0.01594667
gradient rms                        0.00363047
cart. step max                      0.01204539     0.01000000    F
cart. step rms                      0.00422188     0.00666667    T
 
 
--------
Geometry
--------
Formula: H6Cl2O4Pa
Atoms
  Index Symbol   x (angstrom)   y (angstrom)   z (angstrom)
      1     Pa     0.36908203    -0.32657671    -0.00000000       adf.R=2.200
      2      O     0.22204868     1.45777795     0.00000000       adf.R=1.517
      3      H    -2.41264724    -1.55328683     0.00000000       adf.R=1.350
      4     Cl     0.80112550    -3.27688942     0.00000000       adf.R=1.725
      5     Cl    -2.50539991     0.65359905     0.00000000       adf.R=1.725
      6      O     2.64652990     1.19828421     0.00000000       adf.R=1.517
      7      H     2.43302542     2.14472532     0.00000000       adf.R=1.350
      8      H     3.61452255     1.12911222     0.00000000       adf.R=1.350
      9      O     2.71075190    -1.32678277     0.00000000       adf.R=1.517
     10      H     2.64499570    -2.30468149     0.00000000       adf.R=1.350
     11      H     3.64407973    -1.06137718     0.00000000       adf.R=1.350
     12      O    -1.48818483    -1.87529428     0.00000000       adf.R=1.517
     13      H    -1.40524493    -2.84650221     0.00000000       adf.R=1.350
 
Total System Charge             1.00000
Bonding info available!
 
 *** GO1_GOStep14 ***

 SOLVATION
-------------------------------------------

  The Delley construction of COSMO surface surface is calculated

       Division Level for Surface Triangles (NDIV)                  3
       Final Division Level for Triangles (NFDIV)                   1
       Radius of the Solvent (RSOL)                           1.93000 angstr
  Dielectric Constant (EPSL)                                 78.39000

       COSMO equation is solved iteratively-               conjugate-gradient

       Maximun of Iterations for Charges (NCIX)                  1000
       Criterion for Charge convergence (CCNV)                1.0E-08

  COSMO charges included variationally in SCF

       COSMO included at every SCF cycle

  Geometry-dependent empirical factor                         0.00000

  C-Matrix calculated in cspmtx

  In cspmtx, C-Matrix calculated using fitted potential

-------------------------------------------



 -------------------------------------------
  COSMO surface
  Area             =          592.019
  Volume           =         1007.840
  Number of Points =         1494
 -------------------------------------------



 ======================
 RI Hartree-Fock Scheme
 ======================
  
 Fit Set Quality     : NORMAL
 Threshold Quality   : NORMAL
 Integration Quality : NORMAL
 Fit Generation Method : AUTO
 Response Quality    : DEFAULT
 Is Range Separated  :  F
 
 RIHartreeFock Dependency: number of modified vectors:           0
 cosmo_calcen: 0.5 (esolb+esolc) (Hartrees) =   -0.200623

 Solvation energy (screening term,uncorrected) =   -125.892672 kcal/mol

 Solvation energy (dispersion and cavitation terms) =      1.107029 kcal/mol
 Solvation Energy Contributions (Hartrees)
          esola   esolb+esolc
     0.20062272   -0.40124545
 esol last cycle   -0.20062272
  
 Hartree-Fock exchange energy:   -556.329108293193     
 cosmo_calcen: 0.5 (esolb+esolc) (Hartrees) =   -0.200623

 Solvation energy (screening term,uncorrected) =   -125.892630 kcal/mol

 Solvation energy (dispersion and cavitation terms) =      1.107029 kcal/mol
 Solvation Energy Contributions (Hartrees)
          esola   esolb+esolc
     0.20062266   -0.40124531
 esol last cycle   -0.20062266

 Energy gradients wrt nuclear displacements
 ==========================================

     Atom      Cartesian (a.u./angstrom)
                 X         Y         Z
 ----------------------------------------
     1 Pa    0.000382  0.016430  0.000000
     2 O     0.002648 -0.000180  0.000000
     3 H    -0.001331 -0.004432  0.000000
     4 Cl   -0.001386 -0.007016  0.000000
     5 Cl   -0.006056  0.000533  0.000000
     6 O    -0.002009  0.001828  0.000000
     7 H    -0.001376 -0.000799  0.000000
     8 H    -0.000998 -0.002469  0.000000
     9 O     0.007675  0.000337  0.000000
    10 H    -0.003551 -0.001956  0.000000
    11 H     0.001068 -0.003744  0.000000
    12 O     0.004428  0.002436  0.000000
    13 H     0.000507 -0.000969  0.000000
 ----------------------------------------
 Mulliken charges used for AMS results%charges...

 dE(predicted):    -0.15339E-03, dE(actual):    -0.20198E-03, Trust radius:    1.000000, all in a.u.
 
----------------------------------------------------------------------
Geometry Convergence after Step  14       (Hartree/Angstrom,Angstrom)
----------------------------------------------------------------------
current energy                               -2.83813295 Hartree
energy change                      -0.00020198     0.00013000    F
constrained gradient max            0.01641244     0.00100000    F
constrained gradient rms            0.00365452     0.00066667    F
gradient max                        0.01641244
gradient rms                        0.00365452
cart. step max                      0.07067545     0.01000000    F
cart. step rms                      0.02183524     0.00666667    F
 
 
--------
Geometry
--------
Formula: H6Cl2O4Pa
Atoms
  Index Symbol   x (angstrom)   y (angstrom)   z (angstrom)
      1     Pa     0.37528750    -0.37167701    -0.00000000       adf.R=2.200
      2      O     0.24581672     1.41157012     0.00000000       adf.R=1.517
      3      H    -2.42137802    -1.55568727     0.00000000       adf.R=1.350
      4     Cl     0.80058107    -3.28783333     0.00000000       adf.R=1.725
      5     Cl    -2.47788442     0.64549475     0.00000000       adf.R=1.725
      6      O     2.66749398     1.20033599     0.00000000       adf.R=1.517
      7      H     2.45294882     2.14686295     0.00000000       adf.R=1.350
      8      H     3.63729409     1.15080924     0.00000000       adf.R=1.350
      9      O     2.68234807    -1.32500169     0.00000000       adf.R=1.517
     10      H     2.66387718    -2.29851779     0.00000000       adf.R=1.350
     11      H     3.59184817    -0.99070173     0.00000000       adf.R=1.350
     12      O    -1.49395215    -1.87073113     0.00000000       adf.R=1.517
     13      H    -1.44959652    -2.84281526     0.00000000       adf.R=1.350
 
Total System Charge             1.00000
Bonding info available!
 
 *** GO1_GOStep15 ***

 SOLVATION
-------------------------------------------

  The Delley construction of COSMO surface surface is calculated

       Division Level for Surface Triangles (NDIV)                  3
       Final Division Level for Triangles (NFDIV)                   1
       Radius of the Solvent (RSOL)                           1.93000 angstr
  Dielectric Constant (EPSL)                                 78.39000

       COSMO equation is solved iteratively-               conjugate-gradient

       Maximun of Iterations for Charges (NCIX)                  1000
       Criterion for Charge convergence (CCNV)                1.0E-08

  COSMO charges included variationally in SCF

       COSMO included at every SCF cycle

  Geometry-dependent empirical factor                         0.00000

  C-Matrix calculated in cspmtx

[...]
 Index  Atom      ---- Displacements (x/y/z) ----
     1    Pa      -0.000096   0.000081   0.000000
     2     O      -0.001657  -0.001821  -0.000000
     3     H       0.001622   0.006275  -0.000000
     4    Cl      -0.000700   0.000088   0.000000
     5    Cl       0.000077  -0.000062   0.000000
     6     O       0.007386  -0.005612   0.000000
     7     H      -0.024355  -0.015249  -0.000000
     8     H       0.009501   0.039612  -0.000000
     9     O       0.067845  -0.007689   0.000000
    10     H      -0.473121  -0.319761   0.000000
    11     H      -0.636597   0.511127   0.000000
    12     O      -0.000756  -0.000155  -0.000000
    13     H       0.010925   0.001032   0.000000
 
 Mode:    34      Frequency (cm-1):     3087.1171     Intensity (km/mol):     2625.3274     Irrep: A'
 Index  Atom      ---- Displacements (x/y/z) ----
     1    Pa      -0.000245   0.000032  -0.000000
     2     O       0.000154  -0.000824   0.000000
     3     H       0.001798  -0.000297   0.000000
     4    Cl       0.000090   0.000333   0.000000
     5    Cl       0.000187  -0.000088   0.000000
     6     O      -0.000824  -0.001248   0.000000
     7     H       0.022537   0.029154  -0.000000
     8     H       0.024794   0.030936  -0.000000
     9     O      -0.038858  -0.048697  -0.000000
    10     H       0.028794  -0.068289  -0.000000
    11     H       0.595897   0.795358   0.000000
    12     O       0.000042   0.000112  -0.000000
    13     H      -0.000694   0.001390   0.000000
 
 Mode:    35      Frequency (cm-1):     3644.5121     Intensity (km/mol):      124.8993     Irrep: A'
 Index  Atom      ---- Displacements (x/y/z) ----
     1    Pa      -0.000047  -0.000045  -0.000000
     2     O       0.000039   0.000188   0.000000
     3     H       0.686923  -0.215456  -0.000000
     4    Cl       0.000045  -0.000089  -0.000000
     5    Cl      -0.000115   0.000051   0.000000
     6     O      -0.000205  -0.000185   0.000000
     7     H      -0.001199   0.003127  -0.000000
     8     H       0.004043  -0.000262   0.000000
     9     O       0.000011   0.000324   0.000000
    10     H       0.002580  -0.003852  -0.000000
    11     H      -0.001431  -0.002038  -0.000000
    12     O      -0.037689  -0.029178  -0.000000
    13     H      -0.077117   0.688071  -0.000000
 
 Mode:    36      Frequency (cm-1):     3701.1788     Intensity (km/mol):       66.5214     Irrep: A'
 Index  Atom      ---- Displacements (x/y/z) ----
     1    Pa       0.000001  -0.000001  -0.000000
     2     O       0.000001   0.000034   0.000000
     3     H      -0.004359   0.001258   0.000000
     4    Cl      -0.000004  -0.000010  -0.000000
     5    Cl      -0.000006  -0.000002  -0.000000
     6     O      -0.031122  -0.037858   0.000000
     7     H      -0.225043   0.650538   0.000000
     8     H       0.720102  -0.048814   0.000000
     9     O       0.002413  -0.001016  -0.000000
    10     H      -0.023346   0.038532   0.000000
    11     H      -0.015652  -0.022694  -0.000000
    12     O       0.000239   0.000056   0.000000
    13     H       0.000206  -0.002682   0.000000
 
 Mode:    37      Frequency (cm-1):     3721.1494     Intensity (km/mol):      216.4208     Irrep: A'
 Index  Atom      ---- Displacements (x/y/z) ----
     1    Pa       0.000036   0.000001   0.000000
     2     O      -0.000003   0.000208  -0.000000
     3     H       0.009511  -0.002827   0.000000
     4    Cl      -0.000002  -0.000133   0.000000
     5    Cl      -0.000032   0.000014   0.000000
     6     O       0.000543   0.002668   0.000000
     7     H       0.015136  -0.039947  -0.000000
     8     H      -0.019478   0.003957  -0.000000
     9     O       0.029269  -0.055677  -0.000000
    10     H      -0.519301   0.849291   0.000000
    11     H       0.043240   0.029470   0.000000
    12     O      -0.000577   0.000314  -0.000000
    13     H       0.000003  -0.003046   0.000000
 
 Mode:    38      Frequency (cm-1):     3758.5496     Intensity (km/mol):      288.1169     Irrep: A'
 Index  Atom      ---- Displacements (x/y/z) ----
     1    Pa       0.000007  -0.000013  -0.000000
     2     O      -0.000060  -0.000041   0.000000
     3     H       0.666098  -0.182476   0.000000
     4    Cl      -0.000031   0.000031   0.000000
     5    Cl      -0.000070   0.000034  -0.000000
     6     O      -0.000741   0.000484   0.000000
     7     H       0.001853  -0.007327   0.000000
     8     H       0.009511   0.000116  -0.000000
     9     O      -0.000241   0.000544  -0.000000
    10     H       0.005020  -0.007827  -0.000000
    11     H      -0.000426  -0.000637  -0.000000
    12     O      -0.045379   0.056725  -0.000000
    13     H       0.056552  -0.717150  -0.000000
 
 Mode:    39      Frequency (cm-1):     3797.9608     Intensity (km/mol):      256.9374     Irrep: A'
 Index  Atom      ---- Displacements (x/y/z) ----
     1    Pa      -0.000000   0.000001  -0.000000
     2     O      -0.000030   0.000016   0.000000
     3     H       0.008361  -0.002759   0.000000
     4    Cl       0.000004   0.000002  -0.000000
     5    Cl      -0.000014  -0.000008   0.000000
     6     O       0.055893  -0.044334   0.000000
     7     H      -0.197113   0.694378   0.000000
     8     H      -0.688012   0.008712   0.000000
     9     O       0.000528  -0.001005   0.000000
    10     H      -0.009284   0.014771   0.000000
    11     H      -0.000049   0.002125  -0.000000
    12     O      -0.000574   0.000659  -0.000000
    13     H       0.000723  -0.008432  -0.000000

 Vibrational polarizability tensor (a.u.):
                  X                   Y                   Z
 X            2279.63834          -601.78994            -0.00000
 Y            -601.78994          1184.17244            -0.00000
 Z              -0.00000            -0.00000          6830.02863

 Isotropic =      3431.3    atomic units

PES point character: Geometry corresponds to a stationary point on the PES with >1 imaginary frequencies.




 ============================
 Statistical Thermal Analysis  ***  ideal gas assumed  ***
 ============================
  
 Pressure:                  1.000000 atm.
 Temperature:             298.150000 K



 Moments of Inertia [amu*bohr^2] and principal axis
 ==================================================

        1567.4104       2582.0545       4149.4650
 ------------------------------------------------
          -0.9830          0.1834          0.0000
          -0.1834         -0.9830          0.0000
           0.0000          0.0000          1.0000


 The rotational contribution to the molecular entropy includes
 a term, dependent on the symmetry number sigma. The results 
 reported below were computed using sigma = 1, determined from
 the point group symmetry of the input geometry (C(S)). 
 If this is not the correct symmetry, try symmetrizing the molecule before
 running the calculation (note: linear molecules should be aligned along one
 of the Cartesian axes).
 Contributions from frequencies below 20 1/cm are not included in vibrational sums.
 Their contributions, if any, are reported separately.


     Temp                                                        Transl      Rotat     Vibrat     Total
     ----                                                        ------      -----     ------     -----

     298.15   Entropy (cal/mol-K):                               43.626     31.197     36.383    111.205
              Nuclear Internal Energy (kcal/mol):                 0.889      0.889     52.111     53.888
              Constant Volume Heat Capacity (cal/mol-K):          2.981      2.981     30.246     36.208
          (c) Constant Volume Heat Capacity (cal/mol-K):          2.981      2.981     27.065     33.027

       Summary of energy terms
                                                   hartree              eV         kcal/mol           kJ/mol
                                      --------------------     -----------       ----------      -----------
      Energy from Engine:               -2.890184231851537        -78.6459         -1813.62         -7588.18
      Nuclear Internal Energy:           0.085876141675949          2.3368            53.89           225.47
  (c) Nuclear Internal Energy:           0.084240776980003          2.2923            52.86           221.17
      Internal Energy U:                -2.804308090175588        -76.3091         -1759.73         -7362.71
      pV/n = RT:                         0.000944186013486          0.0257             0.59             2.48
      Enthalpy H:                       -2.803363904162102        -76.2834         -1759.14         -7360.23
      -T*S:                             -0.052837203154728         -1.4378           -33.16          -138.72
  (c) -T*S:                             -0.051485862171380         -1.4010           -32.31          -135.18
      Gibbs free energy:                -2.856201107316830        -77.7212         -1792.29         -7498.95
 
 
 
  (c) The properties marked with this symbol have been corrected using 'low vibrational frequency free rotor
      interpolation corrections'. For those terms all positive frequencies are used (also ones below 20 1/cm),
      but the contribution to the partition function of small vibrational frequencies is modified as described
      in the following paper:
      S. Grimme, 'Supramolecular Binding Thermodynamics by Dispersion-Corrected Density Functional Theory'
      (Chem. Eur. J. 2012, 18, 9955-9964)
      Configuration: Dampener Frequency          :   100.000 1/cm
                     Dampener Alpha              :     4.000
                     Averaging Moment of Inertia : 1.000E-44 kg m2

--------------
Atomic charges
--------------
  Index   Atom    Charge
      1     Pa    2.2587
      2      O   -0.6639
      3      H    0.3012
      4     Cl   -0.4436
      5     Cl   -0.4996
      6      O   -0.4479
      7      H    0.2708
      8      H    0.2442
      9      O   -0.4995
     10      H    0.2548
     11      H    0.3849
     12      O   -0.4412
     13      H    0.2813


Dipole moment vector    (Debye):     6.09910896   -5.79944846   -0.00000000
              magnitude (Debye):     8.41621842


-----------------------
Molecular orbitals info
-----------------------
n orbitals:              268
n spin:                    1

Note: only printing virtual orbitals with
      energy smaller than HOMO + 100. eV

HOMO (eV):              -8.2968
LUMO (eV):              -3.5112
HOMO-LUMO gap (eV):      4.7856

   Index   Energy (eV)    Occupation
     207       89.7644         0.000       
     206       86.3288         0.000       
     205       82.1525         0.000       
     204       81.5641         0.000       
     203       77.8979         0.000       
     202       75.3545         0.000       
     201       74.0808         0.000       
     200       72.3819         0.000       
     199       71.4736         0.000       
     198       71.2763         0.000       
     197       69.4927         0.000       
     196       67.3163         0.000       
     195       65.8525         0.000       
     194       60.7114         0.000       
     193       58.6013         0.000       
     192       56.0112         0.000       
     191       54.0398         0.000       
     190       52.8862         0.000       
     189       52.1704         0.000       
     188       51.2476         0.000       
     187       51.2394         0.000       
     186       48.0754         0.000       
     185       48.0293         0.000       
     184       47.7121         0.000       
     183       46.8398         0.000       
     182       46.1218         0.000       
     181       45.6397         0.000       
     180       45.2935         0.000       
     179       43.8648         0.000       
     178       43.6823         0.000       
     177       42.7442         0.000       
     176       42.1090         0.000       
     175       41.1448         0.000       
     174       39.8599         0.000       
     173       39.0940         0.000       
     172       38.8563         0.000       
     171       38.4272         0.000       
     170       37.7293         0.000       
     169       36.8203         0.000       
     168       36.7014         0.000       
     167       35.1853         0.000       
     166       34.7970         0.000       
     165       34.1927         0.000       
     164       33.3313         0.000       
     163       32.7842         0.000       
     162       32.5579         0.000       
     161       32.0258         0.000       
     160       31.2260         0.000       
     159       28.9867         0.000       
     158       27.9721         0.000       
     157       26.3560         0.000       
     156       25.4636         0.000       
     155       24.8956         0.000       
     154       24.5023         0.000       
     153       24.0689         0.000       
     152       23.4557         0.000       
     151       23.3040         0.000       
     150       21.5408         0.000       
     149       21.3348         0.000       
     148       21.0291         0.000       
     147       20.8746         0.000       
     146       20.3658         0.000       
     145       19.7102         0.000       
     144       19.3194         0.000       
     143       18.9411         0.000       
     142       18.4155         0.000       
     141       18.2830         0.000       
     140       17.7996         0.000       
     139       17.3768         0.000       
     138       17.3491         0.000       
     137       16.8244         0.000       
     136       16.3005         0.000       
     135       16.1804         0.000       
     134       15.6997         0.000       
     133       15.3612         0.000       
     132       15.2208         0.000       
     131       15.1310         0.000       
     130       14.9550         0.000       
     129       14.6999         0.000       
     128       14.6387         0.000       
     127       14.0891         0.000       
     126       13.8327         0.000       
     125       13.4573         0.000       
     124       13.2287         0.000       
     123       12.9262         0.000       
     122       12.6537         0.000       
     121       12.0701         0.000       
     120       11.9981         0.000       
     119       11.7861         0.000       
     118       11.5089         0.000       
     117       11.0243         0.000       
     116       10.6017         0.000       
     115       10.1796         0.000       
     114       10.1072         0.000       
     113        9.8653         0.000       
     112        9.6786         0.000       
     111        9.2436         0.000       
     110        8.0840         0.000       
     109        7.1381         0.000       
     108        6.6935         0.000       
     107        5.2470         0.000       
     106        5.1645         0.000       
     105        4.4433         0.000       
     104        3.8606         0.000       
     103        3.0931         0.000       
     102        3.0485         0.000       
     101        2.7191         0.000       
     100        2.6292         0.000       
      99        2.6096         0.000       
      98        2.3565         0.000       
      97        2.2427         0.000       
      96        2.1062         0.000       
      95        1.7476         0.000       
      94        1.4393         0.000       
      93        0.6754         0.000       
      92        0.6077         0.000       
      91       -0.0509         0.000       
      90       -1.1552         0.000       
      89       -1.7819         0.000       
      88       -2.4574         0.000       
      87       -2.8223         0.000       
      86       -3.0963         0.000       
      85       -3.4336         0.000       
      84       -3.4494         0.000       
      83       -3.4700         0.000       
      82       -3.5112         0.000 < LUMO
      81       -8.2968         2.000 < HOMO
      80       -8.5446         2.000       
      79       -8.6145         2.000       
      78       -8.7507         2.000       
      77       -8.8091         2.000       
      76       -9.5462         2.000       
      75       -9.5956         2.000       
      74      -10.2724         2.000       
      73      -10.3328         2.000       
      72      -10.4323         2.000       
      71      -10.6532         2.000       
      70      -10.6848         2.000       
      69      -11.6450         2.000       
      68      -13.0392         2.000       
      67      -13.5640         2.000       
      66      -15.4029         2.000       
      65      -16.1813         2.000       
      64      -16.3256         2.000       
      63      -20.9448         2.000       
      62      -21.3055         2.000       
      61      -22.3678         2.000       
      60      -26.1718         2.000       
      59      -26.3274         2.000       
      58      -28.5568         2.000       
      57      -29.2547         2.000       
      56      -29.3113         2.000       
      55      -30.4719         2.000       
      54      -51.0366         2.000       
      53     -100.5797         2.000       
      52     -100.6441         2.000       
      51     -100.6734         2.000       
      50     -100.8558         2.000       
      49     -100.8558         2.000       
      48     -195.3569         2.000       
      47     -195.3831         2.000       
      46     -195.4238         2.000       
      45     -195.6645         2.000       
      44     -195.6792         2.000       
      43     -195.7307         2.000       
      42     -207.0007         2.000       
      41     -207.3999         2.000       
      40     -207.4209         2.000       
      39     -258.1962         2.000       
      38     -258.5008         2.000       
      37     -305.5193         2.000       
      36     -360.6045         2.000       
      35     -360.6391         2.000       
      34     -360.6830         2.000       
      33     -360.8295         2.000       
      32     -360.8297         2.000       
      31     -361.0261         2.000       
      30     -361.0297         2.000       
      29     -522.3926         2.000       
      28     -522.6252         2.000       
      27     -523.1482         2.000       
      26     -523.4145         2.000       
      25     -711.2665         2.000       
      24     -711.4020         2.000       
      23     -711.4586         2.000       
      22     -711.6963         2.000       
      21     -711.7086         2.000       
      20    -1038.5135         2.000       
      19    -1038.8991         2.000       
      18    -1038.9768         2.000       
      17    -1356.1872         2.000       
      16    -2771.5796         2.000       
      15    -2771.8786         2.000       
      14    -3480.9322         2.000       
      13    -3480.9875         2.000       
      12    -3481.0086         2.000       
      11    -3481.1222         2.000       
      10    -3481.1266         2.000       
       9    -4341.6577         2.000       
       8    -4341.8767         2.000       
       7    -4341.9138         2.000       
       6    -5311.1314         2.000       
       5   -17550.4938         2.000       
       4   -17550.5328         2.000       
       3   -17550.5334         2.000       
       2   -21022.3451         2.000       
       1  -112662.9426         2.000       

PES point character cannot be identified reliably because some modes have a significant rigid character.


AMS application finished. Exiting.
NORMAL TERMINATION
     Total cpu time:   33209.01
  Total system time:    1206.72
 Total elapsed time:   34428.61
