

 Parallel Execution: Process Information
 ==============================================================================
 Rank   Node Name                              NodeID   MyNodeRank  NodeMaster
    0   u-0-9.local                               0          0          0
    1   u-0-9.local                               0          1         -1
    2   u-0-9.local                               0          2         -1
    3   u-0-9.local                               0          3         -1
    4   u-0-9.local                               1          0          1
    5   u-0-9.local                               1          1         -1
    6   u-0-9.local                               1          2         -1
    7   u-0-9.local                               1          3         -1
 ==============================================================================


May use up to 124955MB of RAM as shared memory on node 1
May use up to 62455MB of RAM as shared memory on node 0

 *******************************************************************************
 *                                                                             *
 *  --------------------------------                                           *
 *   Amsterdam Modeling Suite (AMS)              2024.103                      *
 *  --------------------------------                                           *
 *                                               r241004 2024-10-04 d82be5f7   *
 *                                                                             *
 *                                                                             *
 *                              =================                              *
 *                              |               |                              *
 *                              |     A M S     |                              *
 *                              |               |                              *
 *                              =================                              *
 *                                                                             *
 *                                                                             *
 *   Online information and documentation:  https://www.scm.com/support/       *
 *   E-mail:  support@scm.com   info@scm.com                                   *
 *                                                                             *
 *   Scientific publications using AMS results must be properly referenced     *
 *   See the User Manuals (or the web site) for recommended citations          *
 *   The terms and conditions of the End User License Agreement apply to       *
 *   the use of AMS, https://www.scm.com/license-terms/                        *
 *                                                                             *
 **********************  x86_64_linux_intel / intelmpi  ************************
 
 Licensed to: Dr. Val?rie Vallet / Laboratoire PhLAM UMR 8523 / Villeneuve d'Ascq Cedex / FRANCE 2024-12-20 16:14:47
 SCM User ID: u10325
  
 AMS 2024.103  RunTime: Jun08-2025 17:48:59  ShM Nodes: 2  Procs: 8

 AMS jobname: pao_oh_cl_3h2o-h2o-trans.SR.pbe0.tz2p.sp-gp
 AMS jobid  : 1337063344

 Start   directory: /state/partition2/shaaban/1052300.phlam-s-sakura/
 Results directory: /home/shaaban/ams/PhD/geometries-exafs/pao_oh_cl_4h2o/PBE0/sp-gp/pao_oh_cl_3h2o-h2o-trans.SR.pbe0.tz2p.sp-gp.results/
 Scratch directory: /state/partition2/shaaban/1052300.phlam-s-sakura/amstmp_pao_oh_cl_3h2o-h2o-trans.SR.pbe0.tz2p.sp-gp_kid0.1337063344/


 Communication costs MPI_COMM_WORLD:      0.996 usec per message,   0.0085 usec per 8-byte item
 Communication costs for intra-node:      0.375 usec per message,   0.0041 usec per 8-byte item

 RNG seed: -634955826 -1442482202 754170924 595781240 -138246352 1999169041 -1469149400 1679173235



                      ************************************************************************
                      *  ADF 2024.103  RunTime: Jun08-2025 17:49:00  ShM Nodes: 2  Procs: 8  *
                      ************************************************************************
  

       ****************************
       * SINGLE POINT CALCULATION *
       ****************************
 
--------
Geometry
--------
Formula: H9ClO6Pa
Atoms
  Index Symbol   x (angstrom)   y (angstrom)   z (angstrom)
      1     Pa    -0.30674794    -0.25589242     0.57016504
      2      O     1.71796144     1.09168558     1.02296768
      3      O    -0.62581422     0.98418413    -1.52495628
      4      O    -1.07779725     1.50862201     1.30690427
      5      H     2.59899958     0.72559396     0.88642342
      6      O    -1.03966770    -2.54134182    -0.31286840
      7      H    -0.41578912    -2.91835173    -0.94547545
      8      H    -1.21021354    -3.23546807     0.33459143
      9      H     1.76805684     1.69932139     1.76919490
     10      O    -0.03369686    -1.19872999     2.11883246
     11     Cl     1.66007298    -1.19403607    -1.04179385
     12      H    -1.03627526     1.85324278    -1.60080106
     13      H    -0.08482756     0.83883546    -2.30991849
     14      O    -2.74959923    -0.56896632     0.35166844
     15      H    -3.19497085    -1.33255574    -0.03020732
     16      H    -3.41894176     0.02029243     0.71396477
     17      H    -1.38138208     2.21443498     1.88339001
 
Total System Charge             1.00000
Bonding info available!
 
 
----------------
ADF Engine Input
----------------
 
 Basis
 Type TZ2P
 Core None
 End
 XC
 Hybrid PBE0
 End
 NumericalQuality Good
 MBPT
 SigmaFunctionalParametrization W1
 End
 

 Title: *** (NO TITLE) ***

 *** adf ***



 ===========================
 A T T A C H E D   F I L E S
 ===========================
  



 ===============================
 M O D E L   P A R A M E T E R S
 ===============================
  
 DENSITY FUNCTIONAL POTENTIAL (scf)
    Hybrid:                            PBE0                                    == Not Default ==

 SPIN  (restricted / unrestr.)
    Molecule:                          Restricted                               
    Fragments:                         Restricted                               

 OTHER ASPECTS
    Relativistic Corrections:          scalar (ZORA,MAPA)                       

    Nuclear Charge Density Model:      Point Charge Nuclei                      
    Core Treatment:                    Frozen Orbital(s)                        

    Hyperfine or Zeeman Interaction:   ---                                      


 Fragment File(s)
 ----------------
 Pa:
         file : /home/shaaban/ams/PhD/geometries-exafs/pao_oh_cl_4h2o/PBE0/sp-gp/pao_oh_cl_3h2o-h2o-trans.SR.pbe0.tz2p.sp-gp.results/t21.7A47308.Pa
         jobid: 0
         title: Protactinium (TZ2P, all electron)
 O:
         file : /home/shaaban/ams/PhD/geometries-exafs/pao_oh_cl_4h2o/PBE0/sp-gp/pao_oh_cl_3h2o-h2o-trans.SR.pbe0.tz2p.sp-gp.results/t21.19EAE705.O
         jobid: 0
         title: Oxygen (TZ2P)
 H:
         file : /home/shaaban/ams/PhD/geometries-exafs/pao_oh_cl_4h2o/PBE0/sp-gp/pao_oh_cl_3h2o-h2o-trans.SR.pbe0.tz2p.sp-gp.results/t21.58F79420.H
         jobid: 0
         title: Hydrogen (TZ2P)
 Cl:
         file : /home/shaaban/ams/PhD/geometries-exafs/pao_oh_cl_4h2o/PBE0/sp-gp/pao_oh_cl_3h2o-h2o-trans.SR.pbe0.tz2p.sp-gp.results/t21.72D87B9C.Cl
         jobid: 0
         title: Chlorine (TZ2P)



 ===============
 G E O M E T R Y  ***  3D  Molecule  ***
 ===============
  

 ATOMS
 =====                            X Y Z                    CHARGE
                                (Angstrom)             Nucl     +Core       At.Mass
                       --------------------------    ----------------       -------
    1  Pa             -0.3067   -0.2559    0.5702     91.00     91.00      231.0359
    2  O               1.7180    1.0917    1.0230      8.00      8.00       15.9949
    3  O              -0.6258    0.9842   -1.5250      8.00      8.00       15.9949
    4  O              -1.0778    1.5086    1.3069      8.00      8.00       15.9949
    5  H               2.5990    0.7256    0.8864      1.00      1.00        1.0078
    6  O              -1.0397   -2.5413   -0.3129      8.00      8.00       15.9949
    7  H              -0.4158   -2.9184   -0.9455      1.00      1.00        1.0078
    8  H              -1.2102   -3.2355    0.3346      1.00      1.00        1.0078
    9  H               1.7681    1.6993    1.7692      1.00      1.00        1.0078
   10  O              -0.0337   -1.1987    2.1188      8.00      8.00       15.9949
   11  Cl              1.6601   -1.1940   -1.0418     17.00     17.00       34.9689
   12  H              -1.0363    1.8532   -1.6008      1.00      1.00        1.0078
   13  H              -0.0848    0.8388   -2.3099      1.00      1.00        1.0078
   14  O              -2.7496   -0.5690    0.3517      8.00      8.00       15.9949
   15  H              -3.1950   -1.3326   -0.0302      1.00      1.00        1.0078
   16  H              -3.4189    0.0203    0.7140      1.00      1.00        1.0078
   17  H              -1.3814    2.2144    1.8834      1.00      1.00        1.0078


 FRAGMENTS
 =========                                     Atoms in this Fragment     Cart. coord.s (Angstrom)
                                               -------------------------------------------------------
    1  Pa                                                1  Pa          -0.3067   -0.2559    0.5702
    2  O                                                 2  O            1.7180    1.0917    1.0230
    3  O                                                 3  O           -0.6258    0.9842   -1.5250
    4  O                                                 4  O           -1.0778    1.5086    1.3069
    5  O                                                 6  O           -1.0397   -2.5413   -0.3129
    6  O                                                10  O           -0.0337   -1.1987    2.1188
    7  O                                                14  O           -2.7496   -0.5690    0.3517
    8  H                                                 5  H            2.5990    0.7256    0.8864
    9  H                                                 7  H           -0.4158   -2.9184   -0.9455
   10  H                                                 8  H           -1.2102   -3.2355    0.3346
   11  H                                                 9  H            1.7681    1.6993    1.7692
   12  H                                                12  H           -1.0363    1.8532   -1.6008
   13  H                                                13  H           -0.0848    0.8388   -2.3099
   14  H                                                15  H           -3.1950   -1.3326   -0.0302
   15  H                                                16  H           -3.4189    0.0203    0.7140
   16  H                                                17  H           -1.3814    2.2144    1.8834
   17  Cl                                               11  Cl           1.6601   -1.1940   -1.0418


 Interatomic Distance Matrix (Angstrom)
 --------------------------------------

   1)     0.000
   2)     2.474   0.000
   3)     2.455   3.464   0.000
   4)     2.062   2.841   2.915   0.000
   5)     3.083   0.964   4.035   3.783   0.000
   6)     2.557   4.753   3.751   4.362   5.035   0.000
   7)     3.066   4.951   3.951   5.011   5.072   0.965   0.000
   8)     3.122   5.270   4.648   4.845   5.523   0.964   1.540   0.000
   9)     3.093   0.964   4.134   2.889   1.555   5.496   5.785   5.940   0.000
  10)     1.834   3.085   4.289   3.013   3.486   2.954   3.535   2.952   3.430   0.000
  11)     2.711   3.081   3.194   4.507   2.878   3.104   2.700   3.782   4.035   3.586
          0.000
  12)     3.113   3.879   0.964   2.928   4.547   4.579   4.856   5.447   4.387   4.915
          4.107   0.000
  13)     3.089   3.798   0.964   3.810   4.175   4.040   4.011   4.986   4.562   4.875
          2.964   1.561   0.000
  14)     2.473   4.813   3.232   2.833   5.529   2.694   3.557   3.079   5.250   3.301
          4.667   3.552   4.021   0.000
  15)     3.140   5.579   3.769   3.787   6.217   2.487   3.328   2.774   6.088   3.825
          4.961   4.156   4.425   0.963   0.000
  16)     3.128   5.257   3.707   2.837   6.062   3.644   4.518   3.953   5.553   3.863
          5.509   3.794   4.575   0.963   1.560   0.000
  17)     2.997   3.407   3.702   0.961   4.365   5.250   5.940   5.668   3.193   3.677
          5.424   3.520   4.600   3.459   4.420   3.215   0.000

 Min. Distance =    0.9606
 Max. Distance =    6.2166



 =====================================
 S Y M M E T R Y ,   E L E C T R O N S
 =====================================
  
 Symmetry: NOSYM

 Irreducible Representations, including subspecies
 -------------------------------------------------
 A

 Symmetry is NOT used when fitting density


 Configuration of Valence Electrons
 ==================================
 ( determined in the SCF procedure )

 Total:   164

 Net Charge: 1 (Nuclei minus Electrons)

 Aufbau principle for MO occupations will be applied through SCF cycle no.     150
 Thereafter, the program will assign electrons to MOs that are spatially
 similar to the occupied MOs in a "reference" cycle ("KeepOrbitals").
 The reference cycle is always the PREVIOUS cycle: it will evolve with
 the SCF procedure.
1
 ***************************************************************************************************



                                      ****************************************
                                      *  B U I L D : (Fragments, Functions)  *
                                      ****************************************
  



 =======
 S F O s  ***  (Symmetrized Fragment Orbitals)  ***
 =======
  
 SFOs are linear combinations of (valence) Fragment Orbitals (FOs), such that the SFOs transform as the
 irreducible representations of the (molecular) symmetry group. Each SFO is therefore characterized by
 an irrep of the molecule and by a few (or only one) generating FOs.
 The SFOs constitute a symmetry-adapted basis for the Fock matrix. The MO eigenvector coefficients in
 this basis provide a direct interpretation of the MOs in terms of Frontier Orbital Theory.

 The SFOs are combined with auxiliary Core Functions (CFs) to ensure orthogonalization on the (frozen)
 Core Orbitals (COs). The Core-orthogonalized SFOs (CSFOs) constitute the true Fock basis.

 The FOs, and hence also the (C)SFOs are combinations of the elementary basis functions (BAS). The basis
 functions that participate in the description of the SFOs depend on the irrep. The indices of the
 involved functions are printed below for each irrep.
 (The complete list of primitive basis functions is printed in another section)

 Total nr. of (C)SFOs (summation over all irreps) :   424

 NOTE: a (C)SFO that is defined as a combination of more than one FO is usually NOT normalized.



                                       === A ===
 Nr. of SFOs :  424
 Cartesian basis functions that participate in this irrep (total number =   485) :
      1     2     3     4     5     6     7     8     9    10
     11    12    13    14    15    16    17    20    23    26
     29    32    35    38    41    44    47    50   157    18
     21    24    27    30    33    36    39    42    45    48
     51   158    19    22    25    28    31    34    37    40
     43    46    49    52   159    53    59    65    71    77
     83    89    95   101    54    60    66    72    78    84
     90    96   102    55    61    67    73    79    85    91
     97   103    56    62    68    74    80    86    92    98
    104    57    63    69    75    81    87    93    99   105
     58    64    70    76    82    88    94   100   106   107
    117   127   137   147   108   118   128   138   148   109
    119   129   139   149   110   120   130   140   150   111
    121   131   141   151   112   122   132   142   152   113
    123   133   143   153   114   124   134   144   154   115
    125   135   145   155   116   126   136   146   156   160
    161   162   163   164   165   168   171   166   169   172
    167   170   173   174   175   176   177   178   179   180
    181   182   183   184   185   186   187   188   189   190
    191   192   193   194   195   198   201   196   199   202
    197   200   203   204   205   206   207   208   209   210
    211   212   213   214   215   216   217   218   219   220
    221   222   223   224   225   228   231   226   229   232
    227   230   233   234   235   236   237   238   239   240
    241   242   243   244   245   246   247   248   249   250
    251   252   253   254   255   258   261   256   259   262
    257   260   263   264   265   266   267   268   269   270
    271   272   273   274   275   276   277   278   279   280
    281   282   283   284   285   288   291   286   289   292
    287   290   293   294   295   296   297   298   299   300
    301   302   303   304   305   306   307   308   309   310
    311   312   313   314   315   318   321   316   319   322
    317   320   323   324   325   326   327   328   329   330
    331   332   333   334   335   336   337   338   339   340
    341   342   343   344   345   346   347   348   349   350
    351   352   353   354   355   356   357   358   359   360
    361   362   363   364   365   366   367   368   369   370
    371   372   373   374   375   376   377   378   379   380
    381   382   383   384   385   386   387   388   389   390
    391   392   393   394   395   396   397   398   399   400
    401   402   403   404   405   406   407   408   409   410
    411   412   413   414   415   416   417   418   419   420
    421   422   423   424   425   426   427   428   429   430
    431   432   433   434   435   436   437   438   439   440
    441   442   443   444   445   446   447   448   449   450
    451   458   459   460   452   455   461   464   467   453
    456   462   465   468   454   457   463   466   469   470
    471   472   473   474   475   476   477   478   479   480
    481   482   483   484   485

    SFO  (index         Fragment          Generating    Expansion in Fragment Orbitals
  indx  incl.CFs)   Occup   Orb.Energy   FragmentType  Coeff.   Orbital     on Fragment
 --------------------------------------------------------------------------------------
     1       1      2.000   -4141.526 au  Pa            1.00      1 S               1
                        ( -112696.657 eV)
     2       2      2.000    -772.998 au  Pa            1.00      2 S               1
                        (  -21034.347 eV)
     3       3      2.000    -195.328 au  Pa            1.00      3 S               1
                        (   -5315.156 eV)
     4       4      2.000     -49.855 au  Pa            1.00      4 S               1
                        (   -1356.621 eV)
     5       5      2.000     -11.133 au  Pa            1.00      5 S               1
                        (    -302.952 eV)
     6       6      2.000      -1.795 au  Pa            1.00      6 S               1
                        (     -48.841 eV)
     7       7      2.000      -0.175 au  Pa            1.00      7 S               1
                        (      -4.760 eV)
     8       8       --         0.034 au  Pa            1.00      8 S               1
                        (       0.919 eV)
     9       9       --         0.339 au  Pa            1.00      9 S               1
                        (       9.238 eV)
    10      10       --         1.683 au  Pa            1.00     10 S               1
                        (      45.798 eV)
    11      11       --         8.710 au  Pa            1.00     11 S               1
                        (     237.014 eV)
    12      12       --        46.395 au  Pa            1.00     12 S               1
                        (    1262.476 eV)
    13      13       --      1052.783 au  Pa            1.00     13 S               1
                        (   28647.695 eV)
    14      14       --      5424.849 au  Pa            1.00     14 S               1
                        (  147617.662 eV)
    15      15       --     16328.088 au  Pa            1.00     15 S               1
                        (  444309.889 eV)
    16      16       --     46435.709 au  Pa            1.00     16 S               1
                        ( 1263579.939 eV)
    17      17      2.000    -645.265 au  Pa            1.00      1 P:x             1
                        (  -17558.565 eV)
    18      18      2.000    -159.642 au  Pa            1.00      2 P:x             1
                        (   -4344.092 eV)
    19      19      2.000     -38.162 au  Pa            1.00      3 P:x             1
                        (   -1038.447 eV)
    20      20      2.000      -7.518 au  Pa            1.00      4 P:x             1
                        (    -204.571 eV)
    21      21      2.000      -0.902 au  Pa            1.00      5 P:x             1
                        (     -24.533 eV)
    22      22       --        -0.009 au  Pa            1.00      6 P:x             1
                        (      -0.239 eV)
    23      23       --         0.410 au  Pa            1.00      7 P:x             1
                        (      11.153 eV)
    24      24       --         1.860 au  Pa            1.00      8 P:x             1
                        (      50.626 eV)
    25      25       --         7.599 au  Pa            1.00      9 P:x             1
                        (     206.767 eV)
    26      26       --        36.007 au  Pa            1.00     10 P:x             1
                        (     979.808 eV)
    27      27       --       178.692 au  Pa            1.00     11 P:x             1
                        (    4862.446 eV)
    28      28       --      1510.091 au  Pa            1.00     12 P:x             1
                        (   41091.664 eV)
    29      29       --     10784.724 au  Pa            1.00     13 P:x             1
                        (  293467.260 eV)
    30      30      2.000    -645.265 au  Pa            1.00      1 P:y             1
                        (  -17558.565 eV)
    31      31      2.000    -159.642 au  Pa            1.00      2 P:y             1
                        (   -4344.092 eV)
    32      32      2.000     -38.162 au  Pa            1.00      3 P:y             1
                        (   -1038.447 eV)
    33      33      2.000      -7.518 au  Pa            1.00      4 P:y             1
                        (    -204.571 eV)
    34      34      2.000      -0.902 au  Pa            1.00      5 P:y             1
                        (     -24.533 eV)
    35      35       --        -0.009 au  Pa            1.00      6 P:y             1
                        (      -0.239 eV)
    36      36       --         0.410 au  Pa            1.00      7 P:y             1
                        (      11.153 eV)
    37      37       --         1.860 au  Pa            1.00      8 P:y             1
                        (      50.626 eV)
    38      38       --         7.599 au  Pa            1.00      9 P:y             1
                        (     206.767 eV)
    39      39       --        36.007 au  Pa            1.00     10 P:y             1
                        (     979.808 eV)
    40      40       --       178.692 au  Pa            1.00     11 P:y             1
                        (    4862.446 eV)
    41      41       --      1510.091 au  Pa            1.00     12 P:y             1
                        (   41091.664 eV)
    42      42       --     10784.724 au  Pa            1.00     13 P:y             1
                        (  293467.260 eV)
    43      43      2.000    -645.265 au  Pa            1.00      1 P:z             1
                        (  -17558.565 eV)
    44      44      2.000    -159.642 au  Pa            1.00      2 P:z             1
                        (   -4344.092 eV)
    45      45      2.000     -38.162 au  Pa            1.00      3 P:z             1
                        (   -1038.447 eV)
    46      46      2.000      -7.518 au  Pa            1.00      4 P:z             1
                        (    -204.571 eV)
    47      47      2.000      -0.902 au  Pa            1.00      5 P:z             1
                        (     -24.533 eV)
    48      48       --        -0.009 au  Pa            1.00      6 P:z             1
                        (      -0.239 eV)
    49      49       --         0.410 au  Pa            1.00      7 P:z             1
                        (      11.153 eV)
    50      50       --         1.860 au  Pa            1.00      8 P:z             1
                        (      50.626 eV)
    51      51       --         7.599 au  Pa            1.00      9 P:z             1
                        (     206.767 eV)
    52      52       --        36.007 au  Pa            1.00     10 P:z             1
                        (     979.808 eV)
    53      53       --       178.692 au  Pa            1.00     11 P:z             1
                        (    4862.446 eV)
    54      54       --      1510.091 au  Pa            1.00     12 P:z             1
                        (   41091.664 eV)
    55      55       --     10784.724 au  Pa            1.00     13 P:z             1
                        (  293467.260 eV)
    56      56      2.000    -127.956 au  Pa            1.00      1 D:z2            1
                        (   -3481.863 eV)
    57      57      2.000     -26.098 au  Pa            1.00      2 D:z2            1
                        (    -710.150 eV)
    58      58      2.000      -3.589 au  Pa            1.00      3 D:z2            1
                        (     -97.672 eV)
    59      59      0.200      -0.066 au  Pa            1.00      4 D:z2            1
                        (      -1.800 eV)
    60      60       --         0.087 au  Pa            1.00      5 D:z2            1
                        (       2.364 eV)
    61      61       --         0.570 au  Pa            1.00      6 D:z2            1
                        (      15.503 eV)
    62      62       --         3.614 au  Pa            1.00      7 D:z2            1
                        (      98.350 eV)
    63      63       --        25.065 au  Pa            1.00      8 D:z2            1
                        (     682.063 eV)
    64      64       --       205.007 au  Pa            1.00      9 D:z2            1
                        (    5578.517 eV)
    65      65      2.000    -127.956 au  Pa            1.00      1 D:x2-y2         1
                        (   -3481.863 eV)
    66      66      2.000     -26.098 au  Pa            1.00      2 D:x2-y2         1
                        (    -710.150 eV)
    67      67      2.000      -3.589 au  Pa            1.00      3 D:x2-y2         1
                        (     -97.672 eV)
    68      68      0.200      -0.066 au  Pa            1.00      4 D:x2-y2         1
                        (      -1.800 eV)
    69      69       --         0.087 au  Pa            1.00      5 D:x2-y2         1
                        (       2.364 eV)
    70      70       --         0.570 au  Pa            1.00      6 D:x2-y2         1
                        (      15.503 eV)
    71      71       --         3.614 au  Pa            1.00      7 D:x2-y2         1
                        (      98.350 eV)
    72      72       --        25.065 au  Pa            1.00      8 D:x2-y2         1
                        (     682.063 eV)
    73      73       --       205.007 au  Pa            1.00      9 D:x2-y2         1
                        (    5578.517 eV)
    74      74      2.000    -127.956 au  Pa            1.00      1 D:xy            1
                        (   -3481.863 eV)
    75      75      2.000     -26.098 au  Pa            1.00      2 D:xy            1
                        (    -710.150 eV)
    76      76      2.000      -3.589 au  Pa            1.00      3 D:xy            1
                        (     -97.672 eV)
    77      77      0.200      -0.066 au  Pa            1.00      4 D:xy            1
                        (      -1.800 eV)
    78      78       --         0.087 au  Pa            1.00      5 D:xy            1
                        (       2.364 eV)
    79      79       --         0.570 au  Pa            1.00      6 D:xy            1
                        (      15.503 eV)
    80      80       --         3.614 au  Pa            1.00      7 D:xy            1
                        (      98.350 eV)
    81      81       --        25.065 au  Pa            1.00      8 D:xy            1
                        (     682.063 eV)
    82      82       --       205.007 au  Pa            1.00      9 D:xy            1
                        (    5578.517 eV)
    83      83      2.000    -127.956 au  Pa            1.00      1 D:xz            1
                        (   -3481.863 eV)
    84      84      2.000     -26.098 au  Pa            1.00      2 D:xz            1
                        (    -710.150 eV)
    85      85      2.000      -3.589 au  Pa            1.00      3 D:xz            1
                        (     -97.672 eV)
    86      86      0.200      -0.066 au  Pa            1.00      4 D:xz            1
                        (      -1.800 eV)
    87      87       --         0.087 au  Pa            1.00      5 D:xz            1
                        (       2.364 eV)
    88      88       --         0.570 au  Pa            1.00      6 D:xz            1
                        (      15.503 eV)
    89      89       --         3.614 au  Pa            1.00      7 D:xz            1
                        (      98.350 eV)
    90      90       --        25.065 au  Pa            1.00      8 D:xz            1
                        (     682.063 eV)
    91      91       --       205.007 au  Pa            1.00      9 D:xz            1
                        (    5578.517 eV)
    92      92      2.000    -127.956 au  Pa            1.00      1 D:yz            1
                        (   -3481.863 eV)
    93      93      2.000     -26.098 au  Pa            1.00      2 D:yz            1
                        (    -710.150 eV)
    94      94      2.000      -3.589 au  Pa            1.00      3 D:yz            1
                        (     -97.672 eV)
    95      95      0.200      -0.066 au  Pa            1.00      4 D:yz            1
                        (      -1.800 eV)
    96      96       --         0.087 au  Pa            1.00      5 D:yz            1
                        (       2.364 eV)
    97      97       --         0.570 au  Pa            1.00      6 D:yz            1
                        (      15.503 eV)
    98      98       --         3.614 au  Pa            1.00      7 D:yz            1
                        (      98.350 eV)
    99      99       --        25.065 au  Pa            1.00      8 D:yz            1
                        (     682.063 eV)
   100     100       --       205.007 au  Pa            1.00      9 D:yz            1
                        (    5578.517 eV)
   101     101      2.000     -13.166 au  Pa            1.00      1 F:z3            1
                        (    -358.254 eV)
   102     102      0.286      -0.038 au  Pa            1.00      2 F:z3            1
                        (      -1.040 eV)
   103     103       --         0.423 au  Pa            1.00      3 F:z3            1
                        (      11.518 eV)
   104     104       --         2.565 au  Pa            1.00      4 F:z3            1
                        (      69.799 eV)
   105     105       --        21.684 au  Pa            1.00      5 F:z3            1
                        (     590.042 eV)
   106     106      2.000     -13.166 au  Pa            1.00      1 F:z             1
                        (    -358.254 eV)
   107     107      0.286      -0.038 au  Pa            1.00      2 F:z             1
                        (      -1.040 eV)
   108     108       --         0.423 au  Pa            1.00      3 F:z             1
                        (      11.518 eV)
   109     109       --         2.565 au  Pa            1.00      4 F:z             1
                        (      69.799 eV)
   110     110       --        21.684 au  Pa            1.00      5 F:z             1
                        (     590.042 eV)
   111     111      2.000     -13.166 au  Pa            1.00      1 F:xyz           1
                        (    -358.254 eV)
   112     112      0.286      -0.038 au  Pa            1.00      2 F:xyz           1
                        (      -1.040 eV)
   113     113       --         0.423 au  Pa            1.00      3 F:xyz           1
                        (      11.518 eV)
   114     114       --         2.565 au  Pa            1.00      4 F:xyz           1
                        (      69.799 eV)
   115     115       --        21.684 au  Pa            1.00      5 F:xyz           1
                        (     590.042 eV)
   116     116      2.000     -13.166 au  Pa            1.00      1 F:z2x           1
                        (    -358.254 eV)
   117     117      0.286      -0.038 au  Pa            1.00      2 F:z2x           1
                        (      -1.040 eV)
   118     118       --         0.423 au  Pa            1.00      3 F:z2x           1
                        (      11.518 eV)
   119     119       --         2.565 au  Pa            1.00      4 F:z2x           1
                        (      69.799 eV)
   120     120       --        21.684 au  Pa            1.00      5 F:z2x           1
                        (     590.042 eV)
   121     121      2.000     -13.166 au  Pa            1.00      1 F:z2y           1
                        (    -358.254 eV)
   122     122      0.286      -0.038 au  Pa            1.00      2 F:z2y           1
                        (      -1.040 eV)
   123     123       --         0.423 au  Pa            1.00      3 F:z2y           1
                        (      11.518 eV)
   124     124       --         2.565 au  Pa            1.00      4 F:z2y           1
                        (      69.799 eV)
   125     125       --        21.684 au  Pa            1.00      5 F:z2y           1
                        (     590.042 eV)
   126     126      2.000     -13.166 au  Pa            1.00      1 F:x             1
                        (    -358.254 eV)
   127     127      0.286      -0.038 au  Pa            1.00      2 F:x             1
                        (      -1.040 eV)
   128     128       --         0.423 au  Pa            1.00      3 F:x             1
                        (      11.518 eV)
   129     129       --         2.565 au  Pa            1.00      4 F:x             1
                        (      69.799 eV)
   130     130       --        21.684 au  Pa            1.00      5 F:x             1
                        (     590.042 eV)
   131     131      2.000     -13.166 au  Pa            1.00      1 F:y             1
                        (    -358.254 eV)
   132     132      0.286      -0.038 au  Pa            1.00      2 F:y             1
                        (      -1.040 eV)
   133     133       --         0.423 au  Pa            1.00      3 F:y             1
                        (      11.518 eV)
   134     134       --         2.565 au  Pa            1.00      4 F:y             1
                        (      69.799 eV)
   135     135       --        21.684 au  Pa            1.00      5 F:y             1
                        (     590.042 eV)
   136     136      2.000     -19.396 au  O             1.00      1 S               2
                        (    -527.802 eV)
   137     137      2.000      -0.999 au  O             1.00      2 S               2
                        (     -27.198 eV)
   138     138       --         0.856 au  O             1.00      3 S               2
                        (      23.286 eV)
   139     139       --        13.669 au  O             1.00      4 S               2
                        (     371.949 eV)
   140     140       --       122.368 au  O             1.00      5 S               2
                        (    3329.795 eV)
   141     141      1.333      -0.366 au  O             1.00      1 P:x             2
                        (      -9.955 eV)
   142     142       --         0.397 au  O             1.00      2 P:x             2
                        (      10.811 eV)
   143     143       --         3.979 au  O             1.00      3 P:x             2
                        (     108.277 eV)
   144     144      1.333      -0.366 au  O             1.00      1 P:y             2
                        (      -9.955 eV)
   145     145       --         0.397 au  O             1.00      2 P:y             2
                        (      10.811 eV)
   146     146       --         3.979 au  O             1.00      3 P:y             2
                        (     108.277 eV)
   147     147      1.333      -0.366 au  O             1.00      1 P:z             2
                        (      -9.955 eV)
   148     148       --         0.397 au  O             1.00      2 P:z             2
                        (      10.811 eV)
   149     149       --         3.979 au  O             1.00      3 P:z             2
                        (     108.277 eV)
   150     150       --         1.128 au  O             1.00      1 D:z2            2
                        (      30.706 eV)
   151     151       --         1.128 au  O             1.00      1 D:x2-y2         2
                        (      30.706 eV)
   152     152       --         1.128 au  O             1.00      1 D:xy            2
                        (      30.706 eV)
   153     153       --         1.128 au  O             1.00      1 D:xz            2
                        (      30.706 eV)
   154     154       --         1.128 au  O             1.00      1 D:yz            2
                        (      30.706 eV)
   155     155       --         3.446 au  O             1.00      1 F:z3            2
                        (      93.771 eV)
   156     156       --         3.446 au  O             1.00      1 F:z             2
                        (      93.771 eV)
   157     157       --         3.446 au  O             1.00      1 F:xyz           2
                        (      93.771 eV)
   158     158       --         3.446 au  O             1.00      1 F:z2x           2
                        (      93.771 eV)
   159     159       --         3.446 au  O             1.00      1 F:z2y           2
                        (      93.771 eV)
   160     160       --         3.446 au  O             1.00      1 F:x             2
                        (      93.771 eV)
   161     161       --         3.446 au  O             1.00      1 F:y             2
                        (      93.771 eV)
   162     162      2.000     -19.396 au  O             1.00      1 S               3
                        (    -527.802 eV)
   163     163      2.000      -0.999 au  O             1.00      2 S               3
                        (     -27.198 eV)
   164     164       --         0.856 au  O             1.00      3 S               3
                        (      23.286 eV)
   165     165       --        13.669 au  O             1.00      4 S               3
                        (     371.949 eV)
   166     166       --       122.368 au  O             1.00      5 S               3
                        (    3329.795 eV)
   167     167      1.333      -0.366 au  O             1.00      1 P:x             3
                        (      -9.955 eV)
   168     168       --         0.397 au  O             1.00      2 P:x             3
                        (      10.811 eV)
   169     169       --         3.979 au  O             1.00      3 P:x             3
                        (     108.277 eV)
   170     170      1.333      -0.366 au  O             1.00      1 P:y             3
                        (      -9.955 eV)
   171     171       --         0.397 au  O             1.00      2 P:y             3
                        (      10.811 eV)
   172     172       --         3.979 au  O             1.00      3 P:y             3
                        (     108.277 eV)
   173     173      1.333      -0.366 au  O             1.00      1 P:z             3
                        (      -9.955 eV)
   174     174       --         0.397 au  O             1.00      2 P:z             3
                        (      10.811 eV)
   175     175       --         3.979 au  O             1.00      3 P:z             3
                        (     108.277 eV)
   176     176       --         1.128 au  O             1.00      1 D:z2            3
                        (      30.706 eV)
   177     177       --         1.128 au  O             1.00      1 D:x2-y2         3
                        (      30.706 eV)
   178     178       --         1.128 au  O             1.00      1 D:xy            3
                        (      30.706 eV)
   179     179       --         1.128 au  O             1.00      1 D:xz            3
                        (      30.706 eV)
   180     180       --         1.128 au  O             1.00      1 D:yz            3
                        (      30.706 eV)
   181     181       --         3.446 au  O             1.00      1 F:z3            3
                        (      93.771 eV)
   182     182       --         3.446 au  O             1.00      1 F:z             3
                        (      93.771 eV)
   183     183       --         3.446 au  O             1.00      1 F:xyz           3
                        (      93.771 eV)
   184     184       --         3.446 au  O             1.00      1 F:z2x           3
                        (      93.771 eV)
   185     185       --         3.446 au  O             1.00      1 F:z2y           3
                        (      93.771 eV)
   186     186       --         3.446 au  O             1.00      1 F:x             3
                        (      93.771 eV)
   187     187       --         3.446 au  O             1.00      1 F:y             3
                        (      93.771 eV)
   188     188      2.000     -19.396 au  O             1.00      1 S               4
                        (    -527.802 eV)
   189     189      2.000      -0.999 au  O             1.00      2 S               4
                        (     -27.198 eV)
   190     190       --         0.856 au  O             1.00      3 S               4
                        (      23.286 eV)
   191     191       --        13.669 au  O             1.00      4 S               4
                        (     371.949 eV)
   192     192       --       122.368 au  O             1.00      5 S               4
                        (    3329.795 eV)
   193     193      1.333      -0.366 au  O             1.00      1 P:x             4
                        (      -9.955 eV)
   194     194       --         0.397 au  O             1.00      2 P:x             4
                        (      10.811 eV)
   195     195       --         3.979 au  O             1.00      3 P:x             4
                        (     108.277 eV)
   196     196      1.333      -0.366 au  O             1.00      1 P:y             4
                        (      -9.955 eV)
   197     197       --         0.397 au  O             1.00      2 P:y             4
                        (      10.811 eV)
   198     198       --         3.979 au  O             1.00      3 P:y             4
                        (     108.277 eV)
   199     199      1.333      -0.366 au  O             1.00      1 P:z             4
                        (      -9.955 eV)
   200     200       --         0.397 au  O             1.00      2 P:z             4
                        (      10.811 eV)
   201     201       --         3.979 au  O             1.00      3 P:z             4
                        (     108.277 eV)
   202     202       --         1.128 au  O             1.00      1 D:z2            4
                        (      30.706 eV)
   203     203       --         1.128 au  O             1.00      1 D:x2-y2         4
                        (      30.706 eV)
   204     204       --         1.128 au  O             1.00      1 D:xy            4
                        (      30.706 eV)
   205     205       --         1.128 au  O             1.00      1 D:xz            4
                        (      30.706 eV)
   206     206       --         1.128 au  O             1.00      1 D:yz            4
                        (      30.706 eV)
   207     207       --         3.446 au  O             1.00      1 F:z3            4
                        (      93.771 eV)
   208     208       --         3.446 au  O             1.00      1 F:z             4
                        (      93.771 eV)
   209     209       --         3.446 au  O             1.00      1 F:xyz           4
                        (      93.771 eV)
   210     210       --         3.446 au  O             1.00      1 F:z2x           4
                        (      93.771 eV)
   211     211       --         3.446 au  O             1.00      1 F:z2y           4
                        (      93.771 eV)
   212     212       --         3.446 au  O             1.00      1 F:x             4
                        (      93.771 eV)
   213     213       --         3.446 au  O             1.00      1 F:y             4
                        (      93.771 eV)
   214     214      2.000     -19.396 au  O             1.00      1 S               5
                        (    -527.802 eV)
   215     215      2.000      -0.999 au  O             1.00      2 S               5
                        (     -27.198 eV)
   216     216       --         0.856 au  O             1.00      3 S               5
                        (      23.286 eV)
   217     217       --        13.669 au  O             1.00      4 S               5
                        (     371.949 eV)
   218     218       --       122.368 au  O             1.00      5 S               5
                        (    3329.795 eV)
   219     219      1.333      -0.366 au  O             1.00      1 P:x             5
                        (      -9.955 eV)
   220     220       --         0.397 au  O             1.00      2 P:x             5
                        (      10.811 eV)
   221     221       --         3.979 au  O             1.00      3 P:x             5
                        (     108.277 eV)
   222     222      1.333      -0.366 au  O             1.00      1 P:y             5
                        (      -9.955 eV)
   223     223       --         0.397 au  O             1.00      2 P:y             5
                        (      10.811 eV)
   224     224       --         3.979 au  O             1.00      3 P:y             5
                        (     108.277 eV)
   225     225      1.333      -0.366 au  O             1.00      1 P:z             5
                        (      -9.955 eV)
   226     226       --         0.397 au  O             1.00      2 P:z             5
                        (      10.811 eV)
   227     227       --         3.979 au  O             1.00      3 P:z             5
                        (     108.277 eV)
   228     228       --         1.128 au  O             1.00      1 D:z2            5
                        (      30.706 eV)
   229     229       --         1.128 au  O             1.00      1 D:x2-y2         5
                        (      30.706 eV)
   230     230       --         1.128 au  O             1.00      1 D:xy            5
                        (      30.706 eV)
   231     231       --         1.128 au  O             1.00      1 D:xz            5
                        (      30.706 eV)
   232     232       --         1.128 au  O             1.00      1 D:yz            5
                        (      30.706 eV)
   233     233       --         3.446 au  O             1.00      1 F:z3            5
                        (      93.771 eV)
   234     234       --         3.446 au  O             1.00      1 F:z             5
                        (      93.771 eV)
   235     235       --         3.446 au  O             1.00      1 F:xyz           5
                        (      93.771 eV)
   236     236       --         3.446 au  O             1.00      1 F:z2x           5
                        (      93.771 eV)
   237     237       --         3.446 au  O             1.00      1 F:z2y           5
                        (      93.771 eV)
   238     238       --         3.446 au  O             1.00      1 F:x             5
                        (      93.771 eV)
   239     239       --         3.446 au  O             1.00      1 F:y             5
                        (      93.771 eV)
   240     240      2.000     -19.396 au  O             1.00      1 S               6
                        (    -527.802 eV)
   241     241      2.000      -0.999 au  O             1.00      2 S               6
                        (     -27.198 eV)
   242     242       --         0.856 au  O             1.00      3 S               6
                        (      23.286 eV)
   243     243       --        13.669 au  O             1.00      4 S               6
                        (     371.949 eV)
   244     244       --       122.368 au  O             1.00      5 S               6
                        (    3329.795 eV)
   245     245      1.333      -0.366 au  O             1.00      1 P:x             6
                        (      -9.955 eV)
   246     246       --         0.397 au  O             1.00      2 P:x             6
                        (      10.811 eV)
   247     247       --         3.979 au  O             1.00      3 P:x             6
                        (     108.277 eV)
   248     248      1.333      -0.366 au  O             1.00      1 P:y             6
                        (      -9.955 eV)
   249     249       --         0.397 au  O             1.00      2 P:y             6
                        (      10.811 eV)
   250     250       --         3.979 au  O             1.00      3 P:y             6
                        (     108.277 eV)
   251     251      1.333      -0.366 au  O             1.00      1 P:z             6
                        (      -9.955 eV)
   252     252       --         0.397 au  O             1.00      2 P:z             6
                        (      10.811 eV)
   253     253       --         3.979 au  O             1.00      3 P:z             6
                        (     108.277 eV)
   254     254       --         1.128 au  O             1.00      1 D:z2            6
                        (      30.706 eV)
   255     255       --         1.128 au  O             1.00      1 D:x2-y2         6
                        (      30.706 eV)
   256     256       --         1.128 au  O             1.00      1 D:xy            6
                        (      30.706 eV)
   257     257       --         1.128 au  O             1.00      1 D:xz            6
                        (      30.706 eV)
   258     258       --         1.128 au  O             1.00      1 D:yz            6
                        (      30.706 eV)
   259     259       --         3.446 au  O             1.00      1 F:z3            6
                        (      93.771 eV)
   260     260       --         3.446 au  O             1.00      1 F:z             6
                        (      93.771 eV)
   261     261       --         3.446 au  O             1.00      1 F:xyz           6
                        (      93.771 eV)
   262     262       --         3.446 au  O             1.00      1 F:z2x           6
                        (      93.771 eV)
   263     263       --         3.446 au  O             1.00      1 F:z2y           6
                        (      93.771 eV)
   264     264       --         3.446 au  O             1.00      1 F:x             6
                        (      93.771 eV)
   265     265       --         3.446 au  O             1.00      1 F:y             6
                        (      93.771 eV)
   266     266      2.000     -19.396 au  O             1.00      1 S               7
                        (    -527.802 eV)
   267     267      2.000      -0.999 au  O             1.00      2 S               7
                        (     -27.198 eV)
   268     268       --         0.856 au  O             1.00      3 S               7
                        (      23.286 eV)
   269     269       --        13.669 au  O             1.00      4 S               7
                        (     371.949 eV)
   270     270       --       122.368 au  O             1.00      5 S               7
                        (    3329.795 eV)
   271     271      1.333      -0.366 au  O             1.00      1 P:x             7
                        (      -9.955 eV)
   272     272       --         0.397 au  O             1.00      2 P:x             7
                        (      10.811 eV)
   273     273       --         3.979 au  O             1.00      3 P:x             7
                        (     108.277 eV)
   274     274      1.333      -0.366 au  O             1.00      1 P:y             7
                        (      -9.955 eV)
   275     275       --         0.397 au  O             1.00      2 P:y             7
                        (      10.811 eV)
   276     276       --         3.979 au  O             1.00      3 P:y             7
                        (     108.277 eV)
   277     277      1.333      -0.366 au  O             1.00      1 P:z             7
                        (      -9.955 eV)
   278     278       --         0.397 au  O             1.00      2 P:z             7
                        (      10.811 eV)
   279     279       --         3.979 au  O             1.00      3 P:z             7
                        (     108.277 eV)
   280     280       --         1.128 au  O             1.00      1 D:z2            7
                        (      30.706 eV)
   281     281       --         1.128 au  O             1.00      1 D:x2-y2         7
                        (      30.706 eV)
   282     282       --         1.128 au  O             1.00      1 D:xy            7
                        (      30.706 eV)
   283     283       --         1.128 au  O             1.00      1 D:xz            7
                        (      30.706 eV)
   284     284       --         1.128 au  O             1.00      1 D:yz            7
                        (      30.706 eV)
   285     285       --         3.446 au  O             1.00      1 F:z3            7
                        (      93.771 eV)
   286     286       --         3.446 au  O             1.00      1 F:z             7
                        (      93.771 eV)
   287     287       --         3.446 au  O             1.00      1 F:xyz           7
                        (      93.771 eV)
   288     288       --         3.446 au  O             1.00      1 F:z2x           7
                        (      93.771 eV)
   289     289       --         3.446 au  O             1.00      1 F:z2y           7
                        (      93.771 eV)
   290     290       --         3.446 au  O             1.00      1 F:x             7
                        (      93.771 eV)
   291     291       --         3.446 au  O             1.00      1 F:y             7
                        (      93.771 eV)
   292     292      1.000      -0.242 au  H             1.00      1 S               8
                        (      -6.582 eV)
   293     293       --         0.113 au  H             1.00      2 S               8
                        (       3.073 eV)
   294     294       --         1.599 au  H             1.00      3 S               8
                        (      43.500 eV)
   295     295       --         0.445 au  H             1.00      1 P:x             8
                        (      12.103 eV)
   296     296       --         0.445 au  H             1.00      1 P:y             8
                        (      12.103 eV)
   297     297       --         0.445 au  H             1.00      1 P:z             8
                        (      12.103 eV)
   298     298       --         2.628 au  H             1.00      1 D:z2            8
                        (      71.505 eV)
   299     299       --         2.628 au  H             1.00      1 D:x2-y2         8
                        (      71.505 eV)
   300     300       --         2.628 au  H             1.00      1 D:xy            8
                        (      71.505 eV)
   301     301       --         2.628 au  H             1.00      1 D:xz            8
                        (      71.505 eV)
   302     302       --         2.628 au  H             1.00      1 D:yz            8
                        (      71.505 eV)
   303     303      1.000      -0.242 au  H             1.00      1 S               9
                        (      -6.582 eV)
   304     304       --         0.113 au  H             1.00      2 S               9
                        (       3.073 eV)
   305     305       --         1.599 au  H             1.00      3 S               9
                        (      43.500 eV)
   306     306       --         0.445 au  H             1.00      1 P:x             9
                        (      12.103 eV)
   307     307       --         0.445 au  H             1.00      1 P:y             9
                        (      12.103 eV)
   308     308       --         0.445 au  H             1.00      1 P:z             9
                        (      12.103 eV)
   309     309       --         2.628 au  H             1.00      1 D:z2            9
                        (      71.505 eV)
   310     310       --         2.628 au  H             1.00      1 D:x2-y2         9
                        (      71.505 eV)
   311     311       --         2.628 au  H             1.00      1 D:xy            9
                        (      71.505 eV)
   312     312       --         2.628 au  H             1.00      1 D:xz            9
                        (      71.505 eV)
   313     313       --         2.628 au  H             1.00      1 D:yz            9
                        (      71.505 eV)
   314     314      1.000      -0.242 au  H             1.00      1 S              10
                        (      -6.582 eV)
   315     315       --         0.113 au  H             1.00      2 S              10
                        (       3.073 eV)
   316     316       --         1.599 au  H             1.00      3 S              10
                        (      43.500 eV)
   317     317       --         0.445 au  H             1.00      1 P:x            10
                        (      12.103 eV)
   318     318       --         0.445 au  H             1.00      1 P:y            10
                        (      12.103 eV)
   319     319       --         0.445 au  H             1.00      1 P:z            10
                        (      12.103 eV)
   320     320       --         2.628 au  H             1.00      1 D:z2           10
                        (      71.505 eV)
   321     321       --         2.628 au  H             1.00      1 D:x2-y2        10
                        (      71.505 eV)
   322     322       --         2.628 au  H             1.00      1 D:xy           10
                        (      71.505 eV)
   323     323       --         2.628 au  H             1.00      1 D:xz           10
                        (      71.505 eV)
   324     324       --         2.628 au  H             1.00      1 D:yz           10
                        (      71.505 eV)
   325     325      1.000      -0.242 au  H             1.00      1 S              11
                        (      -6.582 eV)
   326     326       --         0.113 au  H             1.00      2 S              11
                        (       3.073 eV)
   327     327       --         1.599 au  H             1.00      3 S              11
                        (      43.500 eV)
   328     328       --         0.445 au  H             1.00      1 P:x            11
                        (      12.103 eV)
   329     329       --         0.445 au  H             1.00      1 P:y            11
                        (      12.103 eV)
   330     330       --         0.445 au  H             1.00      1 P:z            11
                        (      12.103 eV)
   331     331       --         2.628 au  H             1.00      1 D:z2           11
                        (      71.505 eV)
   332     332       --         2.628 au  H             1.00      1 D:x2-y2        11
                        (      71.505 eV)
   333     333       --         2.628 au  H             1.00      1 D:xy           11
                        (      71.505 eV)
   334     334       --         2.628 au  H             1.00      1 D:xz           11
                        (      71.505 eV)
   335     335       --         2.628 au  H             1.00      1 D:yz           11
                        (      71.505 eV)
   336     336      1.000      -0.242 au  H             1.00      1 S              12
                        (      -6.582 eV)
   337     337       --         0.113 au  H             1.00      2 S              12
                        (       3.073 eV)
   338     338       --         1.599 au  H             1.00      3 S              12
                        (      43.500 eV)
   339     339       --         0.445 au  H             1.00      1 P:x            12
                        (      12.103 eV)
   340     340       --         0.445 au  H             1.00      1 P:y            12
                        (      12.103 eV)
   341     341       --         0.445 au  H             1.00      1 P:z            12
                        (      12.103 eV)
   342     342       --         2.628 au  H             1.00      1 D:z2           12
                        (      71.505 eV)
   343     343       --         2.628 au  H             1.00      1 D:x2-y2        12
                        (      71.505 eV)
   344     344       --         2.628 au  H             1.00      1 D:xy           12
                        (      71.505 eV)
   345     345       --         2.628 au  H             1.00      1 D:xz           12
                        (      71.505 eV)
   346     346       --         2.628 au  H             1.00      1 D:yz           12
                        (      71.505 eV)
   347     347      1.000      -0.242 au  H             1.00      1 S              13
                        (      -6.582 eV)
   348     348       --         0.113 au  H             1.00      2 S              13
                        (       3.073 eV)
   349     349       --         1.599 au  H             1.00      3 S              13
                        (      43.500 eV)
   350     350       --         0.445 au  H             1.00      1 P:x            13
                        (      12.103 eV)
   351     351       --         0.445 au  H             1.00      1 P:y            13
                        (      12.103 eV)
   352     352       --         0.445 au  H             1.00      1 P:z            13
                        (      12.103 eV)
   353     353       --         2.628 au  H             1.00      1 D:z2           13
                        (      71.505 eV)
   354     354       --         2.628 au  H             1.00      1 D:x2-y2        13
                        (      71.505 eV)
   355     355       --         2.628 au  H             1.00      1 D:xy           13
                        (      71.505 eV)
   356     356       --         2.628 au  H             1.00      1 D:xz           13
                        (      71.505 eV)
   357     357       --         2.628 au  H             1.00      1 D:yz           13
                        (      71.505 eV)
   358     358      1.000      -0.242 au  H             1.00      1 S              14
                        (      -6.582 eV)
   359     359       --         0.113 au  H             1.00      2 S              14
                        (       3.073 eV)
   360     360       --         1.599 au  H             1.00      3 S              14
                        (      43.500 eV)
   361     361       --         0.445 au  H             1.00      1 P:x            14
                        (      12.103 eV)
   362     362       --         0.445 au  H             1.00      1 P:y            14
                        (      12.103 eV)
   363     363       --         0.445 au  H             1.00      1 P:z            14
                        (      12.103 eV)
   364     364       --         2.628 au  H             1.00      1 D:z2           14
                        (      71.505 eV)
   365     365       --         2.628 au  H             1.00      1 D:x2-y2        14
                        (      71.505 eV)
   366     366       --         2.628 au  H             1.00      1 D:xy           14
                        (      71.505 eV)
   367     367       --         2.628 au  H             1.00      1 D:xz           14
                        (      71.505 eV)
   368     368       --         2.628 au  H             1.00      1 D:yz           14
                        (      71.505 eV)
   369     369      1.000      -0.242 au  H             1.00      1 S              15
                        (      -6.582 eV)
   370     370       --         0.113 au  H             1.00      2 S              15
                        (       3.073 eV)
   371     371       --         1.599 au  H             1.00      3 S              15
                        (      43.500 eV)
   372     372       --         0.445 au  H             1.00      1 P:x            15
                        (      12.103 eV)
   373     373       --         0.445 au  H             1.00      1 P:y            15
                        (      12.103 eV)
   374     374       --         0.445 au  H             1.00      1 P:z            15
                        (      12.103 eV)
   375     375       --         2.628 au  H             1.00      1 D:z2           15
                        (      71.505 eV)
   376     376       --         2.628 au  H             1.00      1 D:x2-y2        15
                        (      71.505 eV)
   377     377       --         2.628 au  H             1.00      1 D:xy           15
                        (      71.505 eV)
   378     378       --         2.628 au  H             1.00      1 D:xz           15
                        (      71.505 eV)
   379     379       --         2.628 au  H             1.00      1 D:yz           15
                        (      71.505 eV)
   380     380      1.000      -0.242 au  H             1.00      1 S              16
                        (      -6.582 eV)
   381     381       --         0.113 au  H             1.00      2 S              16
                        (       3.073 eV)
   382     382       --         1.599 au  H             1.00      3 S              16
                        (      43.500 eV)
   383     383       --         0.445 au  H             1.00      1 P:x            16
                        (      12.103 eV)
   384     384       --         0.445 au  H             1.00      1 P:y            16
                        (      12.103 eV)
   385     385       --         0.445 au  H             1.00      1 P:z            16
                        (      12.103 eV)
   386     386       --         2.628 au  H             1.00      1 D:z2           16
                        (      71.505 eV)
   387     387       --         2.628 au  H             1.00      1 D:x2-y2        16
                        (      71.505 eV)
   388     388       --         2.628 au  H             1.00      1 D:xy           16
                        (      71.505 eV)
   389     389       --         2.628 au  H             1.00      1 D:xz           16
                        (      71.505 eV)
   390     390       --         2.628 au  H             1.00      1 D:yz           16
                        (      71.505 eV)
   391     391      2.000    -102.119 au  Cl            1.00      1 S              17
                        (   -2778.789 eV)
   392     392      2.000      -9.646 au  Cl            1.00      2 S              17
                        (    -262.471 eV)
   393     393      2.000      -0.854 au  Cl            1.00      3 S              17
                        (     -23.229 eV)
   394     394       --         0.235 au  Cl            1.00      4 S              17
                        (       6.405 eV)
   395     395       --         2.083 au  Cl            1.00      5 S              17
                        (      56.675 eV)
   396     396       --        12.853 au  Cl            1.00      6 S              17
                        (     349.740 eV)
   397     397       --       206.451 au  Cl            1.00      7 S              17
                        (    5617.823 eV)
   398     398      2.000      -7.311 au  Cl            1.00      1 P:x            17
                        (    -198.932 eV)
   399     399      1.667      -0.356 au  Cl            1.00      2 P:x            17
                        (      -9.674 eV)
   400     400       --         0.265 au  Cl            1.00      3 P:x            17
                        (       7.199 eV)
   401     401       --         2.208 au  Cl            1.00      4 P:x            17
                        (      60.081 eV)
   402     402       --        19.015 au  Cl            1.00      5 P:x            17
                        (     517.415 eV)
   403     403      2.000      -7.311 au  Cl            1.00      1 P:y            17
                        (    -198.932 eV)
   404     404      1.667      -0.356 au  Cl            1.00      2 P:y            17
                        (      -9.674 eV)
   405     405       --         0.265 au  Cl            1.00      3 P:y            17
                        (       7.199 eV)
   406     406       --         2.208 au  Cl            1.00      4 P:y            17
                        (      60.081 eV)
   407     407       --        19.015 au  Cl            1.00      5 P:y            17
                        (     517.415 eV)
   408     408      2.000      -7.311 au  Cl            1.00      1 P:z            17
                        (    -198.932 eV)
   409     409      1.667      -0.356 au  Cl            1.00      2 P:z            17
                        (      -9.674 eV)
   410     410       --         0.265 au  Cl            1.00      3 P:z            17
                        (       7.199 eV)
   411     411       --         2.208 au  Cl            1.00      4 P:z            17
                        (      60.081 eV)
   412     412       --        19.015 au  Cl            1.00      5 P:z            17
                        (     517.415 eV)
   413     413       --         0.444 au  Cl            1.00      1 D:z2           17
                        (      12.084 eV)
   414     414       --         0.444 au  Cl            1.00      1 D:x2-y2        17
                        (      12.084 eV)
   415     415       --         0.444 au  Cl            1.00      1 D:xy           17
                        (      12.084 eV)
   416     416       --         0.444 au  Cl            1.00      1 D:xz           17
                        (      12.084 eV)
   417     417       --         0.444 au  Cl            1.00      1 D:yz           17
                        (      12.084 eV)
   418     418       --         1.251 au  Cl            1.00      1 F:z3           17
                        (      34.044 eV)
   419     419       --         1.251 au  Cl            1.00      1 F:z            17
                        (      34.044 eV)
   420     420       --         1.251 au  Cl            1.00      1 F:xyz          17
                        (      34.044 eV)
   421     421       --         1.251 au  Cl            1.00      1 F:z2x          17
                        (      34.044 eV)
   422     422       --         1.251 au  Cl            1.00      1 F:z2y          17
                        (      34.044 eV)
   423     423       --         1.251 au  Cl            1.00      1 F:x            17
                        (      34.044 eV)
   424     424       --         1.251 au  Cl            1.00      1 F:y            17
                        (      34.044 eV)



 ================================
 (Slater-type)  F U N C T I O N S  ***  (Basis and Fit)  ***
 ================================
  

 Atom Type    1  (Pa)
 ==============

 Valence Basis Sets:  43
 -----------------------
   1 S 1028.000000
   1 S  240.000000
   1 S  107.000000
   2 S  131.500000
   2 S   46.500000
   3 S   59.100000
   3 S   25.450000
   4 S   15.550000
   4 S   11.050000
   5 S   10.200000
   5 S    7.100000
   6 S    4.950000
   6 S    3.250000
   7 S    2.350000
   7 S    1.550000
   7 S    1.020000
   2 P  240.000000
   2 P   84.000000
   2 P   43.600000
   3 P   24.750000
   3 P   17.850000
   4 P   17.650000
   4 P   12.100000
   5 P    8.500000
   5 P    5.900000
   6 P    4.400000
   6 P    3.000000
   6 P    2.100000
   3 D   33.750000
   3 D   21.750000
   4 D   15.300000
   4 D   10.450000
   5 D    7.150000
   5 D    4.600000
   6 D    3.000000
   6 D    1.700000
   6 D    0.980000
   4 F   17.100000
   4 F    9.350000
   5 F    5.850000
   5 F    3.150000
   5 F    1.550000
   7 P    1.550000

 Charge Fitting Sets (for the computation of the Coulomb Potential):  87
 -----------------------------------------------------------------------
   1 S 2056.000000
   1 S 1549.519000
   1 S 1167.806000
   1 S  880.126000
   1 S  663.313000
   1 S  499.911000
   1 S  376.761000
   1 S  283.949000
   1 S  214.000000
   1 S  127.280000
   2 S  140.220000
   2 S   93.850000
   3 S   92.230000
   3 S   65.710000
   4 S   61.900000
   4 S   45.910000
   5 S   42.420000
   5 S   32.370000
   6 S   29.610000
   6 S   23.090000
   7 S   21.000000
   7 S   16.670000
   8 S   15.120000
   8 S   12.170000
   9 S   11.020000
   9 S    8.970000
  10 S    8.120000
  10 S    6.680000
  11 S    6.050000
  11 S    5.020000
  12 S    4.550000
  12 S    3.800000
  12 S    3.180000
  13 S    2.880000
  13 S    2.420000
  13 S    2.040000
   2 P  150.600000
   3 P  125.870000
   4 P  103.260000
   5 P   84.350000
   6 P   68.960000
   7 P   56.560000
   7 P   40.600000
   8 P   33.430000
   8 P   24.490000
   9 P   20.250000
   9 P   15.090000
  10 P   12.530000
  10 P    9.470000
  11 P    7.900000
  11 P    6.040000
  12 P    5.060000
  12 P    3.910000
  13 P    3.290000
  13 P    2.570000
   3 D  128.750000
   4 D   91.090000
   5 D   65.210000
   6 D   47.270000
   7 D   34.690000
   8 D   25.740000
   9 D   19.290000
   9 D   13.060000
  10 D    9.880000
  10 D    6.820000
  11 D    5.210000
  11 D    3.650000
  12 D    2.810000
  12 D    2.000000
   4 F  116.350000
   5 F   72.360000
   6 F   46.140000
   7 F   30.070000
   8 F   19.970000
   9 F   13.480000
  10 F    9.240000
  10 F    5.790000
  11 F    4.020000
  11 F    2.570000
   5 G   52.950000
   6 G   31.380000
   7 G   19.110000
   8 G   11.920000
   9 G    7.580000
  10 G    4.910000
  11 G    3.230000
  11 G    1.960000

 Atom Type    2  (O)
 ==============

 Valence Basis Sets:  10
 -----------------------
   1 S    9.800000
   1 S    6.800000
   2 S    7.580000
   2 S    2.880000
   2 S    1.720000
   2 P    4.080000
   2 P    2.080000
   2 P    1.120000
   3 D    2.000000
   4 F    3.000000

 Charge Fitting Sets (for the computation of the Coulomb Potential):  22
 -----------------------------------------------------------------------
   1 S   19.600000
   2 S   22.600000
   2 S   15.680000
   2 S   10.890000
   2 S    7.560000
   3 S    7.690000
   3 S    5.650000
   3 S    4.150000
   3 S    3.050000
   3 S    2.240000
   2 P   12.860000
   2 P    7.680000
   3 P    6.780000
   3 P    4.390000
   3 P    2.840000
   3 D    8.800000
   3 D    5.580000
   3 D    3.530000
   3 D    2.240000
   4 F    6.200000
   4 F    3.700000
   5 G    4.500000

 Atom Type    3  (H)
 ==============

 Valence Basis Sets:   5
 -----------------------
   1 S    0.690000
   1 S    0.920000
   1 S    1.580000
   2 P    1.250000
   3 D    2.500000

 Charge Fitting Sets (for the computation of the Coulomb Potential):  11
 -----------------------------------------------------------------------
   1 S    3.160000
   1 S    2.090000
   1 S    1.380000
   2 S    1.500000
   2 P    4.000000
   2 P    2.650000
   2 P    1.750000
   3 D    4.000000
   3 D    2.500000
   4 F    3.000000
   5 G    4.000000

 Atom Type    4  (Cl)
 ==============

 Valence Basis Sets:  14
 -----------------------
   1 S   20.300000
   1 S   15.250000
   2 S    6.250000
   2 S    4.450000
   2 P    8.850000
   2 P    5.050000
   3 S    3.450000
   3 S    2.300000
   3 S    1.600000
   3 P    3.350000
   3 P    2.050000
   3 P    1.200000
   3 D    2.000000
   4 F    2.000000

 Charge Fitting Sets (for the computation of the Coulomb Potential):  30
 -----------------------------------------------------------------------
   1 S   40.600000
   1 S   24.830000
   2 S   28.080000
   2 S   19.200000
   3 S   19.250000
   3 S   13.970000
   3 S   10.130000
   4 S    9.710000
   4 S    7.320000
   4 S    5.510000
   5 S    5.170000
   5 S    4.000000
   5 S    3.100000
   5 S    2.400000
   2 P   29.150000
   3 P   21.740000
   4 P   16.160000
   4 P    9.600000
   5 P    7.180000
   5 P    4.480000
   5 P    2.800000
   3 D   21.950000
   4 D   15.750000
   4 D    9.040000
   5 D    6.550000
   5 D    3.960000
   5 D    2.400000
   4 F    5.000000
   4 F    3.000000
   5 G    3.500000


 BAS: List of all Elementary Cartesian Basis Functions
 =====================================================

 The numbering in the list below (to the right of the function characteristics) is referred
 to in print-outs of MO eigenvectors and Mulliken populations in the BAS representation
 (as contrasted to the SFO representation).

 Notes:
 1. The functions are characterized by a polynomial prefactor (powers of x,y,z and r) and
    an exponential decay factor alpha.
 2. Since the basis sets are specific for an atom TYPE, the individual functions occur on
    all atoms of that type.
 3. The word 'Core' in the left margin signals that it is a Core Function (CF) : not a
    degree of freedom in the valence set, but only used to ensure orthogonalization of
    the other valence basis functions on the frozen Core Orbitals.


 (power of) X  Y  Z  R     Alpha  on Atom
            ==========     =====     ==========

 Pa                                   1
                                  ---------------------------------------------------------------------------
            0  0  0  0  1028.000      1
            0  0  0  0   240.000      2
            0  0  0  0   107.000      3
            0  0  0  1   131.500      4
            0  0  0  1    46.500      5
            0  0  0  2    59.100      6
            0  0  0  2    25.450      7
            0  0  0  3    15.550      8
            0  0  0  3    11.050      9
            0  0  0  4    10.200     10
            0  0  0  4     7.100     11
            0  0  0  5     4.950     12
            0  0  0  5     3.250     13
            0  0  0  6     2.350     14
            0  0  0  6     1.550     15
            0  0  0  6     1.020     16
            1  0  0  0   240.000     17
            0  1  0  0   240.000     18
            0  0  1  0   240.000     19
            1  0  0  0    84.000     20
            0  1  0  0    84.000     21
            0  0  1  0    84.000     22
            1  0  0  0    43.600     23
[...]
                                   13.19%     5 D:xy            2.364  0.00     1 Pa
                                    9.29%     4 D:xz           -1.800  0.20     1 Pa
                                    8.39%     5 D:x2-y2         2.364  0.00     1 Pa
                                    4.72%     4 D:yz           -1.800  0.20     1 Pa
                                    3.66%     8 S               0.919  0.00     1 Pa
                                    3.36%     1 S              -6.582  1.00     9 H
                                    2.32%     1 S              -6.582  1.00    10 H
                                    2.25%     2 S               3.073  0.00    10 H
                                   -2.10%     2 P:z            10.811  0.00     6 O
                                   -2.07%     6 P:y            -0.239  0.00     1 Pa
                                   -1.99%     2 P:z            10.811  0.00     2 O
                                    1.71%     4 D:xy           -1.800  0.20     1 Pa
                                   -1.63%     4 S               6.405  0.00    17 Cl
                                   -1.62%     2 P:x            10.811  0.00     3 O
                                   -1.37%     2 P:x            10.811  0.00     6 O
                                    1.04%     1 P:y            -9.955  1.33     6 O
                                   -1.01%     2 S               3.073  0.00     9 H
      -0.503  0.00   103 A         25.31%     7 S              -4.760  2.00     1 Pa
                                   16.43%     5 D:xz            2.364  0.00     1 Pa
                                   13.92%     5 D:z2            2.364  0.00     1 Pa
                                    9.94%     4 D:xy           -1.800  0.20     1 Pa
                                    9.61%     1 S              -6.582  1.00    10 H
                                    8.84%     1 S              -6.582  1.00    13 H
                                    6.83%     1 S              -6.582  1.00    11 H
                                   -4.44%     2 S               3.073  0.00    13 H
                                    4.24%     1 S              -6.582  1.00    15 H
                                    3.45%     1 S              -6.582  1.00    12 H
                                    3.37%     5 D:xy            2.364  0.00     1 Pa
                                    2.98%     1 S              -6.582  1.00     9 H
                                   -2.96%     8 S               0.919  0.00     1 Pa
                                   -2.20%     2 S               3.073  0.00    15 H
                                   -1.71%     2 S               3.073  0.00    10 H
                                    1.68%     4 D:x2-y2        -1.800  0.20     1 Pa
                                   -1.59%     2 S               3.073  0.00    11 H
                                   -1.54%     2 P:z            10.811  0.00     2 O
                                   -1.48%     2 P:x            10.811  0.00     7 O
                                   -1.45%     2 P:y            10.811  0.00     5 O
                                   -1.40%     2 P:z            10.811  0.00     6 O
                                   -1.16%     2 S               3.073  0.00     9 H
                                   -1.14%     2 P:y            10.811  0.00     7 O
                                   -1.09%     2 P:z            10.811  0.00     3 O
                                   -1.08%     2 P:y            10.811  0.00     2 O
      -0.194  0.00   104 A         44.45%     8 S               0.919  0.00     1 Pa
                                   15.71%     4 D:x2-y2        -1.800  0.20     1 Pa
                                    9.42%     1 S              -6.582  1.00    16 H
                                    8.51%     1 S              -6.582  1.00    10 H
                                    8.37%     5 D:xy            2.364  0.00     1 Pa
                                   -4.87%     2 S               3.073  0.00    10 H
                                    3.88%     1 S              -6.582  1.00     8 H
                                   -3.74%     2 P:x            10.811  0.00     7 O
                                    3.48%     2 S               3.073  0.00    16 H
                                    3.17%     1 S              -6.582  1.00    13 H
                                   -2.54%     2 P:y            10.811  0.00     2 O
                                    2.54%     4 D:xy           -1.800  0.20     1 Pa
                                   -2.44%     2 S               3.073  0.00     8 H
                                    2.14%     2 S               3.073  0.00    15 H
                                    1.88%     2 S               3.073  0.00    11 H
                                    1.84%     1 S              -6.582  1.00     9 H
                                   -1.81%     5 D:x2-y2         2.364  0.00     1 Pa
                                    1.78%     5 D:yz            2.364  0.00     1 Pa
                                   -1.61%     7 S              -4.760  2.00     1 Pa
                                   -1.34%     2 S               3.073  0.00    13 H
                                    1.18%     6 P:x            -0.239  0.00     1 Pa
                                    1.11%     3 S              43.500  0.00    16 H
                                    1.09%     1 P:y            -9.955  1.33     2 O
                                   -1.07%     2 P:z            10.811  0.00     5 O
                                    1.01%     1 P:x            -9.955  1.33     7 O



 =======================================================================
 Electrostatic potential at the Nuclei due to electrons and other nuclei
 =======================================================================
  
         Atom                  Potential
         ----                  ---------
     1)   Pa                787.23921813
     2)   O                  22.17947750
     3)   O                  22.15578648
     4)   O                  22.23908814
     5)   H                   0.80720723
     6)   O                  22.17846033
     7)   H                   0.80538668
     8)   H                   0.80278236
     9)   H                   0.80523052
    10)   O                  22.28918876
    11)   Cl                 64.79232840
    12)   H                   0.78041951
    13)   H                   0.78204106
    14)   O                  22.16011174
    15)   H                   0.78540643
    16)   H                   0.78515651
    17)   H                   0.83551543
 Mulliken charges used for AMS results%charges...


    =====================
     CALCULATION RESULTS
    =====================

Energy (hartree)            -4.15238939


--------------
Atomic charges
--------------
  Index   Atom    Charge
      1     Pa    2.3721
      2      O   -0.3743
      3      O   -0.3477
      4      O   -0.6191
      5      H    0.2359
      6      O   -0.4448
      7      H    0.2594
      8      H    0.2569
      9      H    0.2232
     10      O   -0.6788
     11     Cl   -0.4362
     12      H    0.2158
     13      H    0.2228
     14      O   -0.3665
     15      H    0.2146
     16      H    0.2211
     17      H    0.0454


Dipole moment vector    (Debye):    -6.44168188    2.09910913   -0.53583820
              magnitude (Debye):     6.79622301


-----------------------
Molecular orbitals info
-----------------------
n orbitals:              424
n spin:                    1

Note: only printing virtual orbitals with
      energy smaller than HOMO + 100. eV

HOMO (eV):             -11.6233
LUMO (eV):              -5.6178
HOMO-LUMO gap (eV):      6.0055

   Index   Energy (eV)    Occupation
     272       87.8744         0.000       
     271       87.0614         0.000       
     270       84.8958         0.000       
     269       84.4835         0.000       
     268       84.0532         0.000       
     267       83.1336         0.000       
     266       82.7574         0.000       
     265       81.6251         0.000       
     264       81.2376         0.000       
     263       80.8711         0.000       
     262       80.3596         0.000       
     261       79.9407         0.000       
     260       79.5897         0.000       
     259       78.7397         0.000       
     258       78.4602         0.000       
     257       77.1729         0.000       
     256       76.0831         0.000       
     255       75.8795         0.000       
     254       74.3387         0.000       
     253       73.5540         0.000       
     252       73.4093         0.000       
     251       72.9422         0.000       
     250       71.7616         0.000       
     249       71.4192         0.000       
     248       70.5397         0.000       
     247       69.9671         0.000       
     246       69.3432         0.000       
     245       69.1503         0.000       
     244       67.5003         0.000       
     243       67.2071         0.000       
     242       66.7718         0.000       
     241       66.3037         0.000       
     240       66.0941         0.000       
     239       65.4678         0.000       
     238       64.7222         0.000       
     237       63.9241         0.000       
     236       60.9644         0.000       
     235       60.3417         0.000       
     234       59.5789         0.000       
     233       59.5071         0.000       
     232       58.8280         0.000       
     231       57.7127         0.000       
     230       57.2502         0.000       
     229       55.3582         0.000       
     228       53.2225         0.000       
     227       52.8840         0.000       
     226       52.4546         0.000       
     225       51.3371         0.000       
     224       50.7179         0.000       
     223       50.3257         0.000       
     222       49.2683         0.000       
     221       48.9568         0.000       
     220       48.1930         0.000       
     219       48.0071         0.000       
     218       46.4493         0.000       
     217       46.1478         0.000       
     216       45.7072         0.000       
     215       45.2817         0.000       
     214       44.3695         0.000       
     213       43.6679         0.000       
     212       43.3243         0.000       
     211       42.2717         0.000       
     210       42.0147         0.000       
     209       41.6192         0.000       
     208       41.2476         0.000       
     207       40.5588         0.000       
     206       39.6910         0.000       
     205       39.4753         0.000       
     204       39.0150         0.000       
     203       38.1059         0.000       
     202       37.2230         0.000       
     201       36.9444         0.000       
     200       36.4361         0.000       
     199       36.0140         0.000       
     198       35.6016         0.000       
     197       35.4712         0.000       
     196       35.0600         0.000       
     195       34.9548         0.000       
     194       34.6815         0.000       
     193       34.3160         0.000       
     192       34.0711         0.000       
     191       33.9392         0.000       
     190       33.2789         0.000       
     189       33.0291         0.000       
     188       32.8216         0.000       
     187       32.3096         0.000       
     186       32.0644         0.000       
     185       31.8377         0.000       
     184       31.5944         0.000       
     183       31.3783         0.000       
     182       30.7455         0.000       
     181       30.6047         0.000       
     180       30.0918         0.000       
     179       30.0533         0.000       
     178       29.8425         0.000       
     177       29.2419         0.000       
     176       28.1590         0.000       
     175       27.7781         0.000       
     174       26.7842         0.000       
     173       26.2367         0.000       
     172       25.5030         0.000       
     171       24.9811         0.000       
     170       24.1399         0.000       
     169       23.3743         0.000       
     168       22.8010         0.000       
     167       22.5634         0.000       
     166       21.9364         0.000       
     165       21.6872         0.000       
     164       21.0393         0.000       
     163       21.0245         0.000       
     162       19.4203         0.000       
     161       18.7370         0.000       
     160       17.8146         0.000       
     159       17.6149         0.000       
     158       17.2804         0.000       
     157       16.7193         0.000       
     156       16.0924         0.000       
     155       15.7139         0.000       
     154       14.8114         0.000       
     153       14.4533         0.000       
     152       14.1638         0.000       
     151       13.9743         0.000       
     150       13.5292         0.000       
     149       13.4039         0.000       
     148       13.1810         0.000       
     147       12.9376         0.000       
     146       12.8028         0.000       
     145       12.4303         0.000       
     144       12.3016         0.000       
     143       11.9350         0.000       
     142       11.7023         0.000       
     141       11.1600         0.000       
     140       11.1101         0.000       
     139       10.9266         0.000       
     138       10.6217         0.000       
     137       10.3563         0.000       
     136       10.2660         0.000       
     135        9.8654         0.000       
     134        9.6490         0.000       
     133        9.2591         0.000       
     132        9.0495         0.000       
     131        8.5941         0.000       
     130        8.4103         0.000       
     129        8.2614         0.000       
     128        8.1610         0.000       
     127        7.8235         0.000       
     126        7.4332         0.000       
     125        6.6427         0.000       
     124        6.4507         0.000       
     123        6.2489         0.000       
     122        5.9044         0.000       
     121        5.7396         0.000       
     120        5.3600         0.000       
     119        5.3172         0.000       
     118        4.7799         0.000       
     117        4.4178         0.000       
     116        3.7611         0.000       
     115        3.3307         0.000       
     114        3.0482         0.000       
     113        2.9611         0.000       
     112        1.9409         0.000       
     111        1.8387         0.000       
     110        1.4475         0.000       
     109        1.3037         0.000       
     108        1.1556         0.000       
     107        1.0829         0.000       
     106        0.5228         0.000       
     105        0.0102         0.000       
     104       -0.1943         0.000       
     103       -0.5026         0.000       
     102       -0.8513         0.000       
     101       -1.1966         0.000       
     100       -1.2860         0.000       
      99       -1.3748         0.000       
      98       -1.4929         0.000       
      97       -1.8660         0.000       
      96       -1.9028         0.000       
      95       -2.2984         0.000       
      94       -2.6715         0.000       
      93       -3.2553         0.000       
      92       -3.2824         0.000       
      91       -3.5050         0.000       
      90       -4.3162         0.000       
      89       -4.8063         0.000       
      88       -5.1353         0.000       
      87       -5.2088         0.000       
      86       -5.3254         0.000       
      85       -5.4678         0.000       
      84       -5.5680         0.000       
      83       -5.6178         0.000 < LUMO
      82      -11.6233         2.000 < HOMO
      81      -11.8280         2.000       
      80      -11.9989         2.000       
      79      -12.3087         2.000       
      78      -12.9905         2.000       
      77      -13.1703         2.000       
      76      -13.7544         2.000       
      75      -13.9497         2.000       
      74      -14.6291         2.000       
      73      -14.8020         2.000       
      72      -15.0999         2.000       
      71      -15.4715         2.000       
      70      -16.7221         2.000       
      69      -17.0792         2.000       
      68      -17.6954         2.000       
      67      -17.9765         2.000       
      66      -18.0341         2.000       
      65      -20.2861         2.000       
      64      -20.3601         2.000       
      63      -20.9977         2.000       
      62      -21.0223         2.000       
      61      -24.6009         2.000       
      60      -24.9445         2.000       
      59      -28.4684         2.000       
      58      -29.2902         2.000       
      57      -32.4470         2.000       
      56      -33.1316         2.000       
      55      -33.8625         2.000       
      54      -33.9778         2.000       
      53      -34.4663         2.000       
      52      -34.6466         2.000       
      51      -54.1292         2.000       
      50     -103.9787         2.000       
      49     -104.0140         2.000       
      48     -104.0307         2.000       
      47     -104.1134         2.000       
      46     -104.1206         2.000       
      45     -199.4152         2.000       
      44     -199.4221         2.000       
      43     -199.4438         2.000       
      42     -211.1344         2.000       
      41     -211.3761         2.000       
      40     -211.3852         2.000       
      39     -262.9768         2.000       
      38     -309.8181         2.000       
      37     -365.0599         2.000       
      36     -365.0760         2.000       
      35     -365.1218         2.000       
      34     -365.2151         2.000       
      33     -365.2161         2.000       
      32     -365.3294         2.000       
      31     -365.3323         2.000       
      30     -525.9877         2.000       
      29     -526.9926         2.000       
      28     -528.5057         2.000       
      27     -528.5448         2.000       
      26     -529.0229         2.000       
      25     -529.1457         2.000       
      24     -716.8871         2.000       
      23     -716.9922         2.000       
      22     -717.0431         2.000       
      21     -717.1768         2.000       
      20     -717.1847         2.000       
      19    -1045.1695         2.000       
      18    -1045.4074         2.000       
      17    -1045.4813         2.000       
      16    -1363.5290         2.000       
      15    -2779.1717         2.000       
      14    -3488.7291         2.000       
      13    -3488.7684         2.000       
      12    -3488.7893         2.000       
      11    -3488.8527         2.000       
      10    -3488.8559         2.000       
       9    -4350.9437         2.000       
       8    -4351.0762         2.000       
       7    -4351.1169         2.000       
       6    -5322.1024         2.000       
       5   -17564.9785         2.000       
       4   -17564.9992         2.000       
       3   -17565.0026         2.000       
       2   -21040.7808         2.000       
       1  -112702.2078         2.000       

AMS application finished. Exiting.
NORMAL TERMINATION
     Total cpu time:     268.64
  Total system time:       8.93
 Total elapsed time:     279.78
