

 Parallel Execution: Process Information
 ==============================================================================
 Rank   Node Name                              NodeID   MyNodeRank  NodeMaster
    0   u-0-9.local                               0          0          0
    1   u-0-9.local                               0          1         -1
    2   u-0-9.local                               0          2         -1
    3   u-0-9.local                               0          3         -1
    4   u-0-9.local                               1          0          1
    5   u-0-9.local                               1          1         -1
    6   u-0-9.local                               1          2         -1
    7   u-0-9.local                               1          3         -1
 ==============================================================================


May use up to 62455MB of RAM as shared memory on node 0
May use up to 124955MB of RAM as shared memory on node 1

 *******************************************************************************
 *                                                                             *
 *  --------------------------------                                           *
 *   Amsterdam Modeling Suite (AMS)              2024.103                      *
 *  --------------------------------                                           *
 *                                               r241004 2024-10-04 d82be5f7   *
 *                                                                             *
 *                                                                             *
 *                              =================                              *
 *                              |               |                              *
 *                              |     A M S     |                              *
 *                              |               |                              *
 *                              =================                              *
 *                                                                             *
 *                                                                             *
 *   Online information and documentation:  https://www.scm.com/support/       *
 *   E-mail:  support@scm.com   info@scm.com                                   *
 *                                                                             *
 *   Scientific publications using AMS results must be properly referenced     *
 *   See the User Manuals (or the web site) for recommended citations          *
 *   The terms and conditions of the End User License Agreement apply to       *
 *   the use of AMS, https://www.scm.com/license-terms/                        *
 *                                                                             *
 **********************  x86_64_linux_intel / intelmpi  ************************
 
 Licensed to: Dr. Val?rie Vallet / Laboratoire PhLAM UMR 8523 / Villeneuve d'Ascq Cedex / FRANCE 2024-12-20 16:14:47
 SCM User ID: u10325
  
 AMS 2024.103  RunTime: Jun08-2025 17:59:48  ShM Nodes: 2  Procs: 8

 AMS jobname: pao_oh_cl-trans_4h2o.SR.pbe0.tz2p.sp-gp
 AMS jobid  : 1771087853

 Start   directory: /state/partition2/shaaban/1052301.phlam-s-sakura/
 Results directory: /home/shaaban/ams/PhD/geometries-exafs/pao_oh_cl_4h2o/PBE0/sp-gp/pao_oh_cl-trans_4h2o.SR.pbe0.tz2p.sp-gp.results/
 Scratch directory: /state/partition2/shaaban/1052301.phlam-s-sakura/amstmp_pao_oh_cl-trans_4h2o.SR.pbe0.tz2p.sp-gp_kid0.1771087853/


 Communication costs MPI_COMM_WORLD:      0.928 usec per message,   0.0086 usec per 8-byte item
 Communication costs for intra-node:      0.426 usec per message,   0.0041 usec per 8-byte item

 RNG seed: -2021055413 989364800 1577119066 -976884668 992114054 -1610233666 -1571159443 1182581997



                      ************************************************************************
                      *  ADF 2024.103  RunTime: Jun08-2025 17:59:49  ShM Nodes: 2  Procs: 8  *
                      ************************************************************************
  

       ****************************
       * SINGLE POINT CALCULATION *
       ****************************
 
--------
Geometry
--------
Formula: H9ClO6Pa
Atoms
  Index Symbol   x (angstrom)   y (angstrom)   z (angstrom)
      1     Pa    -0.34817815    -0.08750419     0.53829775
      2      O     1.69103982     1.24310221     0.99866755
      3     Cl    -0.52765109     1.01811242    -1.83093553
      4      O    -1.06075597     1.58581612     1.56221598
      5      H     2.58421491     0.88814521     0.93649710
      6      O    -1.10167669    -2.17075937    -0.67101224
      7      H    -1.19210715    -2.25721338    -1.62631142
      8      H    -0.93817557    -3.05533147    -0.32623556
      9      H     1.70202934     1.96158893     1.63957470
     10      O    -0.05753122    -1.25197787     1.92249295
     11      O     1.74364356    -1.13074388    -0.40482869
     12      H     2.02918375    -1.06382181    -1.32254984
     13      H     2.11778309    -1.94719687    -0.05622085
     14      O    -2.80822598    -0.40437640     0.56631748
     15      H    -3.23853708    -1.24159314     0.36246609
     16      H    -3.38634644     0.08959017     1.15692782
     17      H    -1.27198864     1.92153065     2.43784296
 
Total System Charge             1.00000
Bonding info available!
 
 
----------------
ADF Engine Input
----------------
 
 Basis
 Type TZ2P
 Core None
 End
 XC
 Hybrid PBE0
 End
 NumericalQuality Good
 MBPT
 SigmaFunctionalParametrization W1
 End
 

 Title: *** (NO TITLE) ***

 *** adf ***



 ===========================
 A T T A C H E D   F I L E S
 ===========================
  



 ===============================
 M O D E L   P A R A M E T E R S
 ===============================
  
 DENSITY FUNCTIONAL POTENTIAL (scf)
    Hybrid:                            PBE0                                    == Not Default ==

 SPIN  (restricted / unrestr.)
    Molecule:                          Restricted                               
    Fragments:                         Restricted                               

 OTHER ASPECTS
    Relativistic Corrections:          scalar (ZORA,MAPA)                       

    Nuclear Charge Density Model:      Point Charge Nuclei                      
    Core Treatment:                    Frozen Orbital(s)                        

    Hyperfine or Zeeman Interaction:   ---                                      


 Fragment File(s)
 ----------------
 Pa:
         file : /home/shaaban/ams/PhD/geometries-exafs/pao_oh_cl_4h2o/PBE0/sp-gp/pao_oh_cl-trans_4h2o.SR.pbe0.tz2p.sp-gp.results/t21.7A47308.Pa
         jobid: 0
         title: Protactinium (TZ2P, all electron)
 O:
         file : /home/shaaban/ams/PhD/geometries-exafs/pao_oh_cl_4h2o/PBE0/sp-gp/pao_oh_cl-trans_4h2o.SR.pbe0.tz2p.sp-gp.results/t21.19EAE705.O
         jobid: 0
         title: Oxygen (TZ2P)
 Cl:
         file : /home/shaaban/ams/PhD/geometries-exafs/pao_oh_cl_4h2o/PBE0/sp-gp/pao_oh_cl-trans_4h2o.SR.pbe0.tz2p.sp-gp.results/t21.72D87B9C.Cl
         jobid: 0
         title: Chlorine (TZ2P)
 H:
         file : /home/shaaban/ams/PhD/geometries-exafs/pao_oh_cl_4h2o/PBE0/sp-gp/pao_oh_cl-trans_4h2o.SR.pbe0.tz2p.sp-gp.results/t21.58F79420.H
         jobid: 0
         title: Hydrogen (TZ2P)



 ===============
 G E O M E T R Y  ***  3D  Molecule  ***
 ===============
  

 ATOMS
 =====                            X Y Z                    CHARGE
                                (Angstrom)             Nucl     +Core       At.Mass
                       --------------------------    ----------------       -------
    1  Pa             -0.3482   -0.0875    0.5383     91.00     91.00      231.0359
    2  O               1.6910    1.2431    0.9987      8.00      8.00       15.9949
    3  Cl             -0.5277    1.0181   -1.8309     17.00     17.00       34.9689
    4  O              -1.0608    1.5858    1.5622      8.00      8.00       15.9949
    5  H               2.5842    0.8881    0.9365      1.00      1.00        1.0078
    6  O              -1.1017   -2.1708   -0.6710      8.00      8.00       15.9949
    7  H              -1.1921   -2.2572   -1.6263      1.00      1.00        1.0078
    8  H              -0.9382   -3.0553   -0.3262      1.00      1.00        1.0078
    9  H               1.7020    1.9616    1.6396      1.00      1.00        1.0078
   10  O              -0.0575   -1.2520    1.9225      8.00      8.00       15.9949
   11  O               1.7436   -1.1307   -0.4048      8.00      8.00       15.9949
   12  H               2.0292   -1.0638   -1.3225      1.00      1.00        1.0078
   13  H               2.1178   -1.9472   -0.0562      1.00      1.00        1.0078
   14  O              -2.8082   -0.4044    0.5663      8.00      8.00       15.9949
   15  H              -3.2385   -1.2416    0.3625      1.00      1.00        1.0078
   16  H              -3.3863    0.0896    1.1569      1.00      1.00        1.0078
   17  H              -1.2720    1.9215    2.4378      1.00      1.00        1.0078


 FRAGMENTS
 =========                                     Atoms in this Fragment     Cart. coord.s (Angstrom)
                                               -------------------------------------------------------
    1  Pa                                                1  Pa          -0.3482   -0.0875    0.5383
    2  O                                                 2  O            1.6910    1.2431    0.9987
    3  O                                                 4  O           -1.0608    1.5858    1.5622
    4  O                                                 6  O           -1.1017   -2.1708   -0.6710
    5  O                                                10  O           -0.0575   -1.2520    1.9225
    6  O                                                11  O            1.7436   -1.1307   -0.4048
    7  O                                                14  O           -2.8082   -0.4044    0.5663
    8  Cl                                                3  Cl          -0.5277    1.0181   -1.8309
    9  H                                                 5  H            2.5842    0.8881    0.9365
   10  H                                                 7  H           -1.1921   -2.2572   -1.6263
   11  H                                                 8  H           -0.9382   -3.0553   -0.3262
   12  H                                                 9  H            1.7020    1.9616    1.6396
   13  H                                                12  H            2.0292   -1.0638   -1.3225
   14  H                                                13  H            2.1178   -1.9472   -0.0562
   15  H                                                15  H           -3.2385   -1.2416    0.3625
   16  H                                                16  H           -3.3863    0.0896    1.1569
   17  H                                                17  H           -1.2720    1.9215    2.4378


 Interatomic Distance Matrix (Angstrom)
 --------------------------------------

   1)     0.000
   2)     2.478   0.000
   3)     2.621   3.603   0.000
   4)     2.087   2.830   3.481   0.000
   5)     3.116   0.963   4.166   3.764   0.000
   6)     2.524   4.716   3.441   4.370   5.052   0.000
   7)     3.179   5.240   3.348   4.995   5.543   0.963   0.000
   8)     3.147   5.210   4.362   5.012   5.436   0.963   1.547   0.000
   9)     3.101   0.963   4.232   2.789   1.557   5.502   6.070   6.000   0.000
  10)     1.832   3.184   4.412   3.031   3.540   2.943   3.859   3.014   3.675   0.000
  11)     2.521   2.758   3.437   4.372   2.565   3.041   3.373   3.302   3.707   2.945
          0.000
  12)     3.173   3.290   3.336   4.989   3.037   3.384   3.449   3.710   4.247   3.863
          0.963   0.000
  13)     3.145   3.387   4.352   5.020   3.040   3.285   3.677   3.262   4.281   3.022
          0.963   1.547   0.000
  14)     2.481   4.811   3.602   2.830   5.558   2.750   3.294   3.365   5.205   3.182
          4.711   5.235   5.199   0.000
  15)     3.117   5.557   4.155   3.765   6.227   2.549   3.029   3.009   6.025   3.543
          5.042   5.534   5.419   0.963   0.000
  16)     3.106   5.209   4.238   2.795   6.028   3.697   4.251   4.253   5.443   3.670
          5.500   6.067   5.993   0.963   1.557   0.000
  17)     2.915   3.363   4.426   0.961   4.265   5.142   5.830   5.703   3.080   3.437
          5.147   5.827   5.716   3.357   4.264   3.077   0.000

 Min. Distance =    0.9613
 Max. Distance =    6.2265



 =====================================
 S Y M M E T R Y ,   E L E C T R O N S
 =====================================
  
 Symmetry: NOSYM

 Irreducible Representations, including subspecies
 -------------------------------------------------
 A

 Symmetry is NOT used when fitting density


 Configuration of Valence Electrons
 ==================================
 ( determined in the SCF procedure )

 Total:   164

 Net Charge: 1 (Nuclei minus Electrons)

 Aufbau principle for MO occupations will be applied through SCF cycle no.     150
 Thereafter, the program will assign electrons to MOs that are spatially
 similar to the occupied MOs in a "reference" cycle ("KeepOrbitals").
 The reference cycle is always the PREVIOUS cycle: it will evolve with
 the SCF procedure.
1
 ***************************************************************************************************



                                      ****************************************
                                      *  B U I L D : (Fragments, Functions)  *
                                      ****************************************
  



 =======
 S F O s  ***  (Symmetrized Fragment Orbitals)  ***
 =======
  
 SFOs are linear combinations of (valence) Fragment Orbitals (FOs), such that the SFOs transform as the
 irreducible representations of the (molecular) symmetry group. Each SFO is therefore characterized by
 an irrep of the molecule and by a few (or only one) generating FOs.
 The SFOs constitute a symmetry-adapted basis for the Fock matrix. The MO eigenvector coefficients in
 this basis provide a direct interpretation of the MOs in terms of Frontier Orbital Theory.

 The SFOs are combined with auxiliary Core Functions (CFs) to ensure orthogonalization on the (frozen)
 Core Orbitals (COs). The Core-orthogonalized SFOs (CSFOs) constitute the true Fock basis.

 The FOs, and hence also the (C)SFOs are combinations of the elementary basis functions (BAS). The basis
 functions that participate in the description of the SFOs depend on the irrep. The indices of the
 involved functions are printed below for each irrep.
 (The complete list of primitive basis functions is printed in another section)

 Total nr. of (C)SFOs (summation over all irreps) :   424

 NOTE: a (C)SFO that is defined as a combination of more than one FO is usually NOT normalized.



                                       === A ===
 Nr. of SFOs :  424
 Cartesian basis functions that participate in this irrep (total number =   485) :
      1     2     3     4     5     6     7     8     9    10
     11    12    13    14    15    16    17    20    23    26
     29    32    35    38    41    44    47    50   157    18
     21    24    27    30    33    36    39    42    45    48
     51   158    19    22    25    28    31    34    37    40
     43    46    49    52   159    53    59    65    71    77
     83    89    95   101    54    60    66    72    78    84
     90    96   102    55    61    67    73    79    85    91
     97   103    56    62    68    74    80    86    92    98
    104    57    63    69    75    81    87    93    99   105
     58    64    70    76    82    88    94   100   106   107
    117   127   137   147   108   118   128   138   148   109
    119   129   139   149   110   120   130   140   150   111
    121   131   141   151   112   122   132   142   152   113
    123   133   143   153   114   124   134   144   154   115
    125   135   145   155   116   126   136   146   156   160
    161   162   163   164   165   168   171   166   169   172
    167   170   173   174   175   176   177   178   179   180
    181   182   183   184   185   186   187   188   189   190
    191   192   193   194   195   198   201   196   199   202
    197   200   203   204   205   206   207   208   209   210
    211   212   213   214   215   216   217   218   219   220
    221   222   223   224   225   228   231   226   229   232
    227   230   233   234   235   236   237   238   239   240
    241   242   243   244   245   246   247   248   249   250
    251   252   253   254   255   258   261   256   259   262
    257   260   263   264   265   266   267   268   269   270
    271   272   273   274   275   276   277   278   279   280
    281   282   283   284   285   288   291   286   289   292
    287   290   293   294   295   296   297   298   299   300
    301   302   303   304   305   306   307   308   309   310
    311   312   313   314   315   318   321   316   319   322
    317   320   323   324   325   326   327   328   329   330
    331   332   333   334   335   336   337   338   339   340
    341   342   343   350   351   352   344   347   353   356
    359   345   348   354   357   360   346   349   355   358
    361   362   363   364   365   366   367   368   369   370
    371   372   373   374   375   376   377   378   379   380
    381   382   383   384   385   386   387   388   389   390
    391   392   393   394   395   396   397   398   399   400
    401   402   403   404   405   406   407   408   409   410
    411   412   413   414   415   416   417   418   419   420
    421   422   423   424   425   426   427   428   429   430
    431   432   433   434   435   436   437   438   439   440
    441   442   443   444   445   446   447   448   449   450
    451   452   453   454   455   456   457   458   459   460
    461   462   463   464   465   466   467   468   469   470
    471   472   473   474   475   476   477   478   479   480
    481   482   483   484   485

    SFO  (index         Fragment          Generating    Expansion in Fragment Orbitals
  indx  incl.CFs)   Occup   Orb.Energy   FragmentType  Coeff.   Orbital     on Fragment
 --------------------------------------------------------------------------------------
     1       1      2.000   -4141.526 au  Pa            1.00      1 S               1
                        ( -112696.657 eV)
     2       2      2.000    -772.998 au  Pa            1.00      2 S               1
                        (  -21034.347 eV)
     3       3      2.000    -195.328 au  Pa            1.00      3 S               1
                        (   -5315.156 eV)
     4       4      2.000     -49.855 au  Pa            1.00      4 S               1
                        (   -1356.621 eV)
     5       5      2.000     -11.133 au  Pa            1.00      5 S               1
                        (    -302.952 eV)
     6       6      2.000      -1.795 au  Pa            1.00      6 S               1
                        (     -48.841 eV)
     7       7      2.000      -0.175 au  Pa            1.00      7 S               1
                        (      -4.760 eV)
     8       8       --         0.034 au  Pa            1.00      8 S               1
                        (       0.919 eV)
     9       9       --         0.339 au  Pa            1.00      9 S               1
                        (       9.238 eV)
    10      10       --         1.683 au  Pa            1.00     10 S               1
                        (      45.798 eV)
    11      11       --         8.710 au  Pa            1.00     11 S               1
                        (     237.014 eV)
    12      12       --        46.395 au  Pa            1.00     12 S               1
                        (    1262.476 eV)
    13      13       --      1052.783 au  Pa            1.00     13 S               1
                        (   28647.695 eV)
    14      14       --      5424.849 au  Pa            1.00     14 S               1
                        (  147617.662 eV)
    15      15       --     16328.088 au  Pa            1.00     15 S               1
                        (  444309.889 eV)
    16      16       --     46435.709 au  Pa            1.00     16 S               1
                        ( 1263579.939 eV)
    17      17      2.000    -645.265 au  Pa            1.00      1 P:x             1
                        (  -17558.565 eV)
    18      18      2.000    -159.642 au  Pa            1.00      2 P:x             1
                        (   -4344.092 eV)
    19      19      2.000     -38.162 au  Pa            1.00      3 P:x             1
                        (   -1038.447 eV)
    20      20      2.000      -7.518 au  Pa            1.00      4 P:x             1
                        (    -204.571 eV)
    21      21      2.000      -0.902 au  Pa            1.00      5 P:x             1
                        (     -24.533 eV)
    22      22       --        -0.009 au  Pa            1.00      6 P:x             1
                        (      -0.239 eV)
    23      23       --         0.410 au  Pa            1.00      7 P:x             1
                        (      11.153 eV)
    24      24       --         1.860 au  Pa            1.00      8 P:x             1
                        (      50.626 eV)
    25      25       --         7.599 au  Pa            1.00      9 P:x             1
                        (     206.767 eV)
    26      26       --        36.007 au  Pa            1.00     10 P:x             1
                        (     979.808 eV)
    27      27       --       178.692 au  Pa            1.00     11 P:x             1
                        (    4862.446 eV)
    28      28       --      1510.091 au  Pa            1.00     12 P:x             1
                        (   41091.664 eV)
    29      29       --     10784.724 au  Pa            1.00     13 P:x             1
                        (  293467.260 eV)
    30      30      2.000    -645.265 au  Pa            1.00      1 P:y             1
                        (  -17558.565 eV)
    31      31      2.000    -159.642 au  Pa            1.00      2 P:y             1
                        (   -4344.092 eV)
    32      32      2.000     -38.162 au  Pa            1.00      3 P:y             1
                        (   -1038.447 eV)
    33      33      2.000      -7.518 au  Pa            1.00      4 P:y             1
                        (    -204.571 eV)
    34      34      2.000      -0.902 au  Pa            1.00      5 P:y             1
                        (     -24.533 eV)
    35      35       --        -0.009 au  Pa            1.00      6 P:y             1
                        (      -0.239 eV)
    36      36       --         0.410 au  Pa            1.00      7 P:y             1
                        (      11.153 eV)
    37      37       --         1.860 au  Pa            1.00      8 P:y             1
                        (      50.626 eV)
    38      38       --         7.599 au  Pa            1.00      9 P:y             1
                        (     206.767 eV)
    39      39       --        36.007 au  Pa            1.00     10 P:y             1
                        (     979.808 eV)
    40      40       --       178.692 au  Pa            1.00     11 P:y             1
                        (    4862.446 eV)
    41      41       --      1510.091 au  Pa            1.00     12 P:y             1
                        (   41091.664 eV)
    42      42       --     10784.724 au  Pa            1.00     13 P:y             1
                        (  293467.260 eV)
    43      43      2.000    -645.265 au  Pa            1.00      1 P:z             1
                        (  -17558.565 eV)
    44      44      2.000    -159.642 au  Pa            1.00      2 P:z             1
                        (   -4344.092 eV)
    45      45      2.000     -38.162 au  Pa            1.00      3 P:z             1
                        (   -1038.447 eV)
    46      46      2.000      -7.518 au  Pa            1.00      4 P:z             1
                        (    -204.571 eV)
    47      47      2.000      -0.902 au  Pa            1.00      5 P:z             1
                        (     -24.533 eV)
    48      48       --        -0.009 au  Pa            1.00      6 P:z             1
                        (      -0.239 eV)
    49      49       --         0.410 au  Pa            1.00      7 P:z             1
                        (      11.153 eV)
    50      50       --         1.860 au  Pa            1.00      8 P:z             1
                        (      50.626 eV)
    51      51       --         7.599 au  Pa            1.00      9 P:z             1
                        (     206.767 eV)
    52      52       --        36.007 au  Pa            1.00     10 P:z             1
                        (     979.808 eV)
    53      53       --       178.692 au  Pa            1.00     11 P:z             1
                        (    4862.446 eV)
    54      54       --      1510.091 au  Pa            1.00     12 P:z             1
                        (   41091.664 eV)
    55      55       --     10784.724 au  Pa            1.00     13 P:z             1
                        (  293467.260 eV)
    56      56      2.000    -127.956 au  Pa            1.00      1 D:z2            1
                        (   -3481.863 eV)
    57      57      2.000     -26.098 au  Pa            1.00      2 D:z2            1
                        (    -710.150 eV)
    58      58      2.000      -3.589 au  Pa            1.00      3 D:z2            1
                        (     -97.672 eV)
    59      59      0.200      -0.066 au  Pa            1.00      4 D:z2            1
                        (      -1.800 eV)
    60      60       --         0.087 au  Pa            1.00      5 D:z2            1
                        (       2.364 eV)
    61      61       --         0.570 au  Pa            1.00      6 D:z2            1
                        (      15.503 eV)
    62      62       --         3.614 au  Pa            1.00      7 D:z2            1
                        (      98.350 eV)
    63      63       --        25.065 au  Pa            1.00      8 D:z2            1
                        (     682.063 eV)
    64      64       --       205.007 au  Pa            1.00      9 D:z2            1
                        (    5578.517 eV)
    65      65      2.000    -127.956 au  Pa            1.00      1 D:x2-y2         1
                        (   -3481.863 eV)
    66      66      2.000     -26.098 au  Pa            1.00      2 D:x2-y2         1
                        (    -710.150 eV)
    67      67      2.000      -3.589 au  Pa            1.00      3 D:x2-y2         1
                        (     -97.672 eV)
    68      68      0.200      -0.066 au  Pa            1.00      4 D:x2-y2         1
                        (      -1.800 eV)
    69      69       --         0.087 au  Pa            1.00      5 D:x2-y2         1
                        (       2.364 eV)
    70      70       --         0.570 au  Pa            1.00      6 D:x2-y2         1
                        (      15.503 eV)
    71      71       --         3.614 au  Pa            1.00      7 D:x2-y2         1
                        (      98.350 eV)
    72      72       --        25.065 au  Pa            1.00      8 D:x2-y2         1
                        (     682.063 eV)
    73      73       --       205.007 au  Pa            1.00      9 D:x2-y2         1
                        (    5578.517 eV)
    74      74      2.000    -127.956 au  Pa            1.00      1 D:xy            1
                        (   -3481.863 eV)
    75      75      2.000     -26.098 au  Pa            1.00      2 D:xy            1
                        (    -710.150 eV)
    76      76      2.000      -3.589 au  Pa            1.00      3 D:xy            1
                        (     -97.672 eV)
    77      77      0.200      -0.066 au  Pa            1.00      4 D:xy            1
                        (      -1.800 eV)
    78      78       --         0.087 au  Pa            1.00      5 D:xy            1
                        (       2.364 eV)
    79      79       --         0.570 au  Pa            1.00      6 D:xy            1
                        (      15.503 eV)
    80      80       --         3.614 au  Pa            1.00      7 D:xy            1
                        (      98.350 eV)
    81      81       --        25.065 au  Pa            1.00      8 D:xy            1
                        (     682.063 eV)
    82      82       --       205.007 au  Pa            1.00      9 D:xy            1
                        (    5578.517 eV)
    83      83      2.000    -127.956 au  Pa            1.00      1 D:xz            1
                        (   -3481.863 eV)
    84      84      2.000     -26.098 au  Pa            1.00      2 D:xz            1
                        (    -710.150 eV)
    85      85      2.000      -3.589 au  Pa            1.00      3 D:xz            1
                        (     -97.672 eV)
    86      86      0.200      -0.066 au  Pa            1.00      4 D:xz            1
                        (      -1.800 eV)
    87      87       --         0.087 au  Pa            1.00      5 D:xz            1
                        (       2.364 eV)
    88      88       --         0.570 au  Pa            1.00      6 D:xz            1
                        (      15.503 eV)
    89      89       --         3.614 au  Pa            1.00      7 D:xz            1
                        (      98.350 eV)
    90      90       --        25.065 au  Pa            1.00      8 D:xz            1
                        (     682.063 eV)
    91      91       --       205.007 au  Pa            1.00      9 D:xz            1
                        (    5578.517 eV)
    92      92      2.000    -127.956 au  Pa            1.00      1 D:yz            1
                        (   -3481.863 eV)
    93      93      2.000     -26.098 au  Pa            1.00      2 D:yz            1
                        (    -710.150 eV)
    94      94      2.000      -3.589 au  Pa            1.00      3 D:yz            1
                        (     -97.672 eV)
    95      95      0.200      -0.066 au  Pa            1.00      4 D:yz            1
                        (      -1.800 eV)
    96      96       --         0.087 au  Pa            1.00      5 D:yz            1
                        (       2.364 eV)
    97      97       --         0.570 au  Pa            1.00      6 D:yz            1
                        (      15.503 eV)
    98      98       --         3.614 au  Pa            1.00      7 D:yz            1
                        (      98.350 eV)
    99      99       --        25.065 au  Pa            1.00      8 D:yz            1
                        (     682.063 eV)
   100     100       --       205.007 au  Pa            1.00      9 D:yz            1
                        (    5578.517 eV)
   101     101      2.000     -13.166 au  Pa            1.00      1 F:z3            1
                        (    -358.254 eV)
   102     102      0.286      -0.038 au  Pa            1.00      2 F:z3            1
                        (      -1.040 eV)
   103     103       --         0.423 au  Pa            1.00      3 F:z3            1
                        (      11.518 eV)
   104     104       --         2.565 au  Pa            1.00      4 F:z3            1
                        (      69.799 eV)
   105     105       --        21.684 au  Pa            1.00      5 F:z3            1
                        (     590.042 eV)
   106     106      2.000     -13.166 au  Pa            1.00      1 F:z             1
                        (    -358.254 eV)
   107     107      0.286      -0.038 au  Pa            1.00      2 F:z             1
                        (      -1.040 eV)
   108     108       --         0.423 au  Pa            1.00      3 F:z             1
                        (      11.518 eV)
   109     109       --         2.565 au  Pa            1.00      4 F:z             1
                        (      69.799 eV)
   110     110       --        21.684 au  Pa            1.00      5 F:z             1
                        (     590.042 eV)
   111     111      2.000     -13.166 au  Pa            1.00      1 F:xyz           1
                        (    -358.254 eV)
   112     112      0.286      -0.038 au  Pa            1.00      2 F:xyz           1
                        (      -1.040 eV)
   113     113       --         0.423 au  Pa            1.00      3 F:xyz           1
                        (      11.518 eV)
   114     114       --         2.565 au  Pa            1.00      4 F:xyz           1
                        (      69.799 eV)
   115     115       --        21.684 au  Pa            1.00      5 F:xyz           1
                        (     590.042 eV)
   116     116      2.000     -13.166 au  Pa            1.00      1 F:z2x           1
                        (    -358.254 eV)
   117     117      0.286      -0.038 au  Pa            1.00      2 F:z2x           1
                        (      -1.040 eV)
   118     118       --         0.423 au  Pa            1.00      3 F:z2x           1
                        (      11.518 eV)
   119     119       --         2.565 au  Pa            1.00      4 F:z2x           1
                        (      69.799 eV)
   120     120       --        21.684 au  Pa            1.00      5 F:z2x           1
                        (     590.042 eV)
   121     121      2.000     -13.166 au  Pa            1.00      1 F:z2y           1
                        (    -358.254 eV)
   122     122      0.286      -0.038 au  Pa            1.00      2 F:z2y           1
                        (      -1.040 eV)
   123     123       --         0.423 au  Pa            1.00      3 F:z2y           1
                        (      11.518 eV)
   124     124       --         2.565 au  Pa            1.00      4 F:z2y           1
                        (      69.799 eV)
   125     125       --        21.684 au  Pa            1.00      5 F:z2y           1
                        (     590.042 eV)
   126     126      2.000     -13.166 au  Pa            1.00      1 F:x             1
                        (    -358.254 eV)
   127     127      0.286      -0.038 au  Pa            1.00      2 F:x             1
                        (      -1.040 eV)
   128     128       --         0.423 au  Pa            1.00      3 F:x             1
                        (      11.518 eV)
   129     129       --         2.565 au  Pa            1.00      4 F:x             1
                        (      69.799 eV)
   130     130       --        21.684 au  Pa            1.00      5 F:x             1
                        (     590.042 eV)
   131     131      2.000     -13.166 au  Pa            1.00      1 F:y             1
                        (    -358.254 eV)
   132     132      0.286      -0.038 au  Pa            1.00      2 F:y             1
                        (      -1.040 eV)
   133     133       --         0.423 au  Pa            1.00      3 F:y             1
                        (      11.518 eV)
   134     134       --         2.565 au  Pa            1.00      4 F:y             1
                        (      69.799 eV)
   135     135       --        21.684 au  Pa            1.00      5 F:y             1
                        (     590.042 eV)
   136     136      2.000     -19.396 au  O             1.00      1 S               2
                        (    -527.802 eV)
   137     137      2.000      -0.999 au  O             1.00      2 S               2
                        (     -27.198 eV)
   138     138       --         0.856 au  O             1.00      3 S               2
                        (      23.286 eV)
   139     139       --        13.669 au  O             1.00      4 S               2
                        (     371.949 eV)
   140     140       --       122.368 au  O             1.00      5 S               2
                        (    3329.795 eV)
   141     141      1.333      -0.366 au  O             1.00      1 P:x             2
                        (      -9.955 eV)
   142     142       --         0.397 au  O             1.00      2 P:x             2
                        (      10.811 eV)
   143     143       --         3.979 au  O             1.00      3 P:x             2
                        (     108.277 eV)
   144     144      1.333      -0.366 au  O             1.00      1 P:y             2
                        (      -9.955 eV)
   145     145       --         0.397 au  O             1.00      2 P:y             2
                        (      10.811 eV)
   146     146       --         3.979 au  O             1.00      3 P:y             2
                        (     108.277 eV)
   147     147      1.333      -0.366 au  O             1.00      1 P:z             2
                        (      -9.955 eV)
   148     148       --         0.397 au  O             1.00      2 P:z             2
                        (      10.811 eV)
   149     149       --         3.979 au  O             1.00      3 P:z             2
                        (     108.277 eV)
   150     150       --         1.128 au  O             1.00      1 D:z2            2
                        (      30.706 eV)
   151     151       --         1.128 au  O             1.00      1 D:x2-y2         2
                        (      30.706 eV)
   152     152       --         1.128 au  O             1.00      1 D:xy            2
                        (      30.706 eV)
   153     153       --         1.128 au  O             1.00      1 D:xz            2
                        (      30.706 eV)
   154     154       --         1.128 au  O             1.00      1 D:yz            2
                        (      30.706 eV)
   155     155       --         3.446 au  O             1.00      1 F:z3            2
                        (      93.771 eV)
   156     156       --         3.446 au  O             1.00      1 F:z             2
                        (      93.771 eV)
   157     157       --         3.446 au  O             1.00      1 F:xyz           2
                        (      93.771 eV)
   158     158       --         3.446 au  O             1.00      1 F:z2x           2
                        (      93.771 eV)
   159     159       --         3.446 au  O             1.00      1 F:z2y           2
                        (      93.771 eV)
   160     160       --         3.446 au  O             1.00      1 F:x             2
                        (      93.771 eV)
   161     161       --         3.446 au  O             1.00      1 F:y             2
                        (      93.771 eV)
   162     162      2.000     -19.396 au  O             1.00      1 S               3
                        (    -527.802 eV)
   163     163      2.000      -0.999 au  O             1.00      2 S               3
                        (     -27.198 eV)
   164     164       --         0.856 au  O             1.00      3 S               3
                        (      23.286 eV)
   165     165       --        13.669 au  O             1.00      4 S               3
                        (     371.949 eV)
   166     166       --       122.368 au  O             1.00      5 S               3
                        (    3329.795 eV)
   167     167      1.333      -0.366 au  O             1.00      1 P:x             3
                        (      -9.955 eV)
   168     168       --         0.397 au  O             1.00      2 P:x             3
                        (      10.811 eV)
   169     169       --         3.979 au  O             1.00      3 P:x             3
                        (     108.277 eV)
   170     170      1.333      -0.366 au  O             1.00      1 P:y             3
                        (      -9.955 eV)
   171     171       --         0.397 au  O             1.00      2 P:y             3
                        (      10.811 eV)
   172     172       --         3.979 au  O             1.00      3 P:y             3
                        (     108.277 eV)
   173     173      1.333      -0.366 au  O             1.00      1 P:z             3
                        (      -9.955 eV)
   174     174       --         0.397 au  O             1.00      2 P:z             3
                        (      10.811 eV)
   175     175       --         3.979 au  O             1.00      3 P:z             3
                        (     108.277 eV)
   176     176       --         1.128 au  O             1.00      1 D:z2            3
                        (      30.706 eV)
   177     177       --         1.128 au  O             1.00      1 D:x2-y2         3
                        (      30.706 eV)
   178     178       --         1.128 au  O             1.00      1 D:xy            3
                        (      30.706 eV)
   179     179       --         1.128 au  O             1.00      1 D:xz            3
                        (      30.706 eV)
   180     180       --         1.128 au  O             1.00      1 D:yz            3
                        (      30.706 eV)
   181     181       --         3.446 au  O             1.00      1 F:z3            3
                        (      93.771 eV)
   182     182       --         3.446 au  O             1.00      1 F:z             3
                        (      93.771 eV)
   183     183       --         3.446 au  O             1.00      1 F:xyz           3
                        (      93.771 eV)
   184     184       --         3.446 au  O             1.00      1 F:z2x           3
                        (      93.771 eV)
   185     185       --         3.446 au  O             1.00      1 F:z2y           3
                        (      93.771 eV)
   186     186       --         3.446 au  O             1.00      1 F:x             3
                        (      93.771 eV)
   187     187       --         3.446 au  O             1.00      1 F:y             3
                        (      93.771 eV)
   188     188      2.000     -19.396 au  O             1.00      1 S               4
                        (    -527.802 eV)
   189     189      2.000      -0.999 au  O             1.00      2 S               4
                        (     -27.198 eV)
   190     190       --         0.856 au  O             1.00      3 S               4
                        (      23.286 eV)
   191     191       --        13.669 au  O             1.00      4 S               4
                        (     371.949 eV)
   192     192       --       122.368 au  O             1.00      5 S               4
                        (    3329.795 eV)
   193     193      1.333      -0.366 au  O             1.00      1 P:x             4
                        (      -9.955 eV)
   194     194       --         0.397 au  O             1.00      2 P:x             4
                        (      10.811 eV)
   195     195       --         3.979 au  O             1.00      3 P:x             4
                        (     108.277 eV)
   196     196      1.333      -0.366 au  O             1.00      1 P:y             4
                        (      -9.955 eV)
   197     197       --         0.397 au  O             1.00      2 P:y             4
                        (      10.811 eV)
   198     198       --         3.979 au  O             1.00      3 P:y             4
                        (     108.277 eV)
   199     199      1.333      -0.366 au  O             1.00      1 P:z             4
                        (      -9.955 eV)
   200     200       --         0.397 au  O             1.00      2 P:z             4
                        (      10.811 eV)
   201     201       --         3.979 au  O             1.00      3 P:z             4
                        (     108.277 eV)
   202     202       --         1.128 au  O             1.00      1 D:z2            4
                        (      30.706 eV)
   203     203       --         1.128 au  O             1.00      1 D:x2-y2         4
                        (      30.706 eV)
   204     204       --         1.128 au  O             1.00      1 D:xy            4
                        (      30.706 eV)
   205     205       --         1.128 au  O             1.00      1 D:xz            4
                        (      30.706 eV)
   206     206       --         1.128 au  O             1.00      1 D:yz            4
                        (      30.706 eV)
   207     207       --         3.446 au  O             1.00      1 F:z3            4
                        (      93.771 eV)
   208     208       --         3.446 au  O             1.00      1 F:z             4
                        (      93.771 eV)
   209     209       --         3.446 au  O             1.00      1 F:xyz           4
                        (      93.771 eV)
   210     210       --         3.446 au  O             1.00      1 F:z2x           4
                        (      93.771 eV)
   211     211       --         3.446 au  O             1.00      1 F:z2y           4
                        (      93.771 eV)
   212     212       --         3.446 au  O             1.00      1 F:x             4
                        (      93.771 eV)
   213     213       --         3.446 au  O             1.00      1 F:y             4
                        (      93.771 eV)
   214     214      2.000     -19.396 au  O             1.00      1 S               5
                        (    -527.802 eV)
   215     215      2.000      -0.999 au  O             1.00      2 S               5
                        (     -27.198 eV)
   216     216       --         0.856 au  O             1.00      3 S               5
                        (      23.286 eV)
   217     217       --        13.669 au  O             1.00      4 S               5
                        (     371.949 eV)
   218     218       --       122.368 au  O             1.00      5 S               5
                        (    3329.795 eV)
   219     219      1.333      -0.366 au  O             1.00      1 P:x             5
                        (      -9.955 eV)
   220     220       --         0.397 au  O             1.00      2 P:x             5
                        (      10.811 eV)
   221     221       --         3.979 au  O             1.00      3 P:x             5
                        (     108.277 eV)
   222     222      1.333      -0.366 au  O             1.00      1 P:y             5
                        (      -9.955 eV)
   223     223       --         0.397 au  O             1.00      2 P:y             5
                        (      10.811 eV)
   224     224       --         3.979 au  O             1.00      3 P:y             5
                        (     108.277 eV)
   225     225      1.333      -0.366 au  O             1.00      1 P:z             5
                        (      -9.955 eV)
   226     226       --         0.397 au  O             1.00      2 P:z             5
                        (      10.811 eV)
   227     227       --         3.979 au  O             1.00      3 P:z             5
                        (     108.277 eV)
   228     228       --         1.128 au  O             1.00      1 D:z2            5
                        (      30.706 eV)
   229     229       --         1.128 au  O             1.00      1 D:x2-y2         5
                        (      30.706 eV)
   230     230       --         1.128 au  O             1.00      1 D:xy            5
                        (      30.706 eV)
   231     231       --         1.128 au  O             1.00      1 D:xz            5
                        (      30.706 eV)
   232     232       --         1.128 au  O             1.00      1 D:yz            5
                        (      30.706 eV)
   233     233       --         3.446 au  O             1.00      1 F:z3            5
                        (      93.771 eV)
   234     234       --         3.446 au  O             1.00      1 F:z             5
                        (      93.771 eV)
   235     235       --         3.446 au  O             1.00      1 F:xyz           5
                        (      93.771 eV)
   236     236       --         3.446 au  O             1.00      1 F:z2x           5
                        (      93.771 eV)
   237     237       --         3.446 au  O             1.00      1 F:z2y           5
                        (      93.771 eV)
   238     238       --         3.446 au  O             1.00      1 F:x             5
                        (      93.771 eV)
   239     239       --         3.446 au  O             1.00      1 F:y             5
                        (      93.771 eV)
   240     240      2.000     -19.396 au  O             1.00      1 S               6
                        (    -527.802 eV)
   241     241      2.000      -0.999 au  O             1.00      2 S               6
                        (     -27.198 eV)
   242     242       --         0.856 au  O             1.00      3 S               6
                        (      23.286 eV)
   243     243       --        13.669 au  O             1.00      4 S               6
                        (     371.949 eV)
   244     244       --       122.368 au  O             1.00      5 S               6
                        (    3329.795 eV)
   245     245      1.333      -0.366 au  O             1.00      1 P:x             6
                        (      -9.955 eV)
   246     246       --         0.397 au  O             1.00      2 P:x             6
                        (      10.811 eV)
   247     247       --         3.979 au  O             1.00      3 P:x             6
                        (     108.277 eV)
   248     248      1.333      -0.366 au  O             1.00      1 P:y             6
                        (      -9.955 eV)
   249     249       --         0.397 au  O             1.00      2 P:y             6
                        (      10.811 eV)
   250     250       --         3.979 au  O             1.00      3 P:y             6
                        (     108.277 eV)
   251     251      1.333      -0.366 au  O             1.00      1 P:z             6
                        (      -9.955 eV)
   252     252       --         0.397 au  O             1.00      2 P:z             6
                        (      10.811 eV)
   253     253       --         3.979 au  O             1.00      3 P:z             6
                        (     108.277 eV)
   254     254       --         1.128 au  O             1.00      1 D:z2            6
                        (      30.706 eV)
   255     255       --         1.128 au  O             1.00      1 D:x2-y2         6
                        (      30.706 eV)
   256     256       --         1.128 au  O             1.00      1 D:xy            6
                        (      30.706 eV)
   257     257       --         1.128 au  O             1.00      1 D:xz            6
                        (      30.706 eV)
   258     258       --         1.128 au  O             1.00      1 D:yz            6
                        (      30.706 eV)
   259     259       --         3.446 au  O             1.00      1 F:z3            6
                        (      93.771 eV)
   260     260       --         3.446 au  O             1.00      1 F:z             6
                        (      93.771 eV)
   261     261       --         3.446 au  O             1.00      1 F:xyz           6
                        (      93.771 eV)
   262     262       --         3.446 au  O             1.00      1 F:z2x           6
                        (      93.771 eV)
   263     263       --         3.446 au  O             1.00      1 F:z2y           6
                        (      93.771 eV)
   264     264       --         3.446 au  O             1.00      1 F:x             6
                        (      93.771 eV)
   265     265       --         3.446 au  O             1.00      1 F:y             6
                        (      93.771 eV)
   266     266      2.000     -19.396 au  O             1.00      1 S               7
                        (    -527.802 eV)
   267     267      2.000      -0.999 au  O             1.00      2 S               7
                        (     -27.198 eV)
   268     268       --         0.856 au  O             1.00      3 S               7
                        (      23.286 eV)
   269     269       --        13.669 au  O             1.00      4 S               7
                        (     371.949 eV)
   270     270       --       122.368 au  O             1.00      5 S               7
                        (    3329.795 eV)
   271     271      1.333      -0.366 au  O             1.00      1 P:x             7
                        (      -9.955 eV)
   272     272       --         0.397 au  O             1.00      2 P:x             7
                        (      10.811 eV)
   273     273       --         3.979 au  O             1.00      3 P:x             7
                        (     108.277 eV)
   274     274      1.333      -0.366 au  O             1.00      1 P:y             7
                        (      -9.955 eV)
   275     275       --         0.397 au  O             1.00      2 P:y             7
                        (      10.811 eV)
   276     276       --         3.979 au  O             1.00      3 P:y             7
                        (     108.277 eV)
   277     277      1.333      -0.366 au  O             1.00      1 P:z             7
                        (      -9.955 eV)
   278     278       --         0.397 au  O             1.00      2 P:z             7
                        (      10.811 eV)
   279     279       --         3.979 au  O             1.00      3 P:z             7
                        (     108.277 eV)
   280     280       --         1.128 au  O             1.00      1 D:z2            7
                        (      30.706 eV)
   281     281       --         1.128 au  O             1.00      1 D:x2-y2         7
                        (      30.706 eV)
   282     282       --         1.128 au  O             1.00      1 D:xy            7
                        (      30.706 eV)
   283     283       --         1.128 au  O             1.00      1 D:xz            7
                        (      30.706 eV)
   284     284       --         1.128 au  O             1.00      1 D:yz            7
                        (      30.706 eV)
   285     285       --         3.446 au  O             1.00      1 F:z3            7
                        (      93.771 eV)
   286     286       --         3.446 au  O             1.00      1 F:z             7
                        (      93.771 eV)
   287     287       --         3.446 au  O             1.00      1 F:xyz           7
                        (      93.771 eV)
   288     288       --         3.446 au  O             1.00      1 F:z2x           7
                        (      93.771 eV)
   289     289       --         3.446 au  O             1.00      1 F:z2y           7
                        (      93.771 eV)
   290     290       --         3.446 au  O             1.00      1 F:x             7
                        (      93.771 eV)
   291     291       --         3.446 au  O             1.00      1 F:y             7
                        (      93.771 eV)
   292     292      2.000    -102.119 au  Cl            1.00      1 S               8
                        (   -2778.789 eV)
   293     293      2.000      -9.646 au  Cl            1.00      2 S               8
                        (    -262.471 eV)
   294     294      2.000      -0.854 au  Cl            1.00      3 S               8
                        (     -23.229 eV)
   295     295       --         0.235 au  Cl            1.00      4 S               8
                        (       6.405 eV)
   296     296       --         2.083 au  Cl            1.00      5 S               8
                        (      56.675 eV)
   297     297       --        12.853 au  Cl            1.00      6 S               8
                        (     349.740 eV)
   298     298       --       206.451 au  Cl            1.00      7 S               8
                        (    5617.823 eV)
   299     299      2.000      -7.311 au  Cl            1.00      1 P:x             8
                        (    -198.932 eV)
   300     300      1.667      -0.356 au  Cl            1.00      2 P:x             8
                        (      -9.674 eV)
   301     301       --         0.265 au  Cl            1.00      3 P:x             8
                        (       7.199 eV)
   302     302       --         2.208 au  Cl            1.00      4 P:x             8
                        (      60.081 eV)
   303     303       --        19.015 au  Cl            1.00      5 P:x             8
                        (     517.415 eV)
   304     304      2.000      -7.311 au  Cl            1.00      1 P:y             8
                        (    -198.932 eV)
   305     305      1.667      -0.356 au  Cl            1.00      2 P:y             8
                        (      -9.674 eV)
   306     306       --         0.265 au  Cl            1.00      3 P:y             8
                        (       7.199 eV)
   307     307       --         2.208 au  Cl            1.00      4 P:y             8
                        (      60.081 eV)
   308     308       --        19.015 au  Cl            1.00      5 P:y             8
                        (     517.415 eV)
   309     309      2.000      -7.311 au  Cl            1.00      1 P:z             8
                        (    -198.932 eV)
   310     310      1.667      -0.356 au  Cl            1.00      2 P:z             8
                        (      -9.674 eV)
   311     311       --         0.265 au  Cl            1.00      3 P:z             8
                        (       7.199 eV)
   312     312       --         2.208 au  Cl            1.00      4 P:z             8
                        (      60.081 eV)
   313     313       --        19.015 au  Cl            1.00      5 P:z             8
                        (     517.415 eV)
   314     314       --         0.444 au  Cl            1.00      1 D:z2            8
                        (      12.084 eV)
   315     315       --         0.444 au  Cl            1.00      1 D:x2-y2         8
                        (      12.084 eV)
   316     316       --         0.444 au  Cl            1.00      1 D:xy            8
                        (      12.084 eV)
   317     317       --         0.444 au  Cl            1.00      1 D:xz            8
                        (      12.084 eV)
   318     318       --         0.444 au  Cl            1.00      1 D:yz            8
                        (      12.084 eV)
   319     319       --         1.251 au  Cl            1.00      1 F:z3            8
                        (      34.044 eV)
   320     320       --         1.251 au  Cl            1.00      1 F:z             8
                        (      34.044 eV)
   321     321       --         1.251 au  Cl            1.00      1 F:xyz           8
                        (      34.044 eV)
   322     322       --         1.251 au  Cl            1.00      1 F:z2x           8
                        (      34.044 eV)
   323     323       --         1.251 au  Cl            1.00      1 F:z2y           8
                        (      34.044 eV)
   324     324       --         1.251 au  Cl            1.00      1 F:x             8
                        (      34.044 eV)
   325     325       --         1.251 au  Cl            1.00      1 F:y             8
                        (      34.044 eV)
   326     326      1.000      -0.242 au  H             1.00      1 S               9
                        (      -6.582 eV)
   327     327       --         0.113 au  H             1.00      2 S               9
                        (       3.073 eV)
   328     328       --         1.599 au  H             1.00      3 S               9
                        (      43.500 eV)
   329     329       --         0.445 au  H             1.00      1 P:x             9
                        (      12.103 eV)
   330     330       --         0.445 au  H             1.00      1 P:y             9
                        (      12.103 eV)
   331     331       --         0.445 au  H             1.00      1 P:z             9
                        (      12.103 eV)
   332     332       --         2.628 au  H             1.00      1 D:z2            9
                        (      71.505 eV)
   333     333       --         2.628 au  H             1.00      1 D:x2-y2         9
                        (      71.505 eV)
   334     334       --         2.628 au  H             1.00      1 D:xy            9
                        (      71.505 eV)
   335     335       --         2.628 au  H             1.00      1 D:xz            9
                        (      71.505 eV)
   336     336       --         2.628 au  H             1.00      1 D:yz            9
                        (      71.505 eV)
   337     337      1.000      -0.242 au  H             1.00      1 S              10
                        (      -6.582 eV)
   338     338       --         0.113 au  H             1.00      2 S              10
                        (       3.073 eV)
   339     339       --         1.599 au  H             1.00      3 S              10
                        (      43.500 eV)
   340     340       --         0.445 au  H             1.00      1 P:x            10
                        (      12.103 eV)
   341     341       --         0.445 au  H             1.00      1 P:y            10
                        (      12.103 eV)
   342     342       --         0.445 au  H             1.00      1 P:z            10
                        (      12.103 eV)
   343     343       --         2.628 au  H             1.00      1 D:z2           10
                        (      71.505 eV)
   344     344       --         2.628 au  H             1.00      1 D:x2-y2        10
                        (      71.505 eV)
   345     345       --         2.628 au  H             1.00      1 D:xy           10
                        (      71.505 eV)
   346     346       --         2.628 au  H             1.00      1 D:xz           10
                        (      71.505 eV)
   347     347       --         2.628 au  H             1.00      1 D:yz           10
                        (      71.505 eV)
   348     348      1.000      -0.242 au  H             1.00      1 S              11
                        (      -6.582 eV)
   349     349       --         0.113 au  H             1.00      2 S              11
                        (       3.073 eV)
   350     350       --         1.599 au  H             1.00      3 S              11
                        (      43.500 eV)
   351     351       --         0.445 au  H             1.00      1 P:x            11
                        (      12.103 eV)
   352     352       --         0.445 au  H             1.00      1 P:y            11
                        (      12.103 eV)
   353     353       --         0.445 au  H             1.00      1 P:z            11
                        (      12.103 eV)
   354     354       --         2.628 au  H             1.00      1 D:z2           11
                        (      71.505 eV)
   355     355       --         2.628 au  H             1.00      1 D:x2-y2        11
                        (      71.505 eV)
   356     356       --         2.628 au  H             1.00      1 D:xy           11
                        (      71.505 eV)
   357     357       --         2.628 au  H             1.00      1 D:xz           11
                        (      71.505 eV)
   358     358       --         2.628 au  H             1.00      1 D:yz           11
                        (      71.505 eV)
   359     359      1.000      -0.242 au  H             1.00      1 S              12
                        (      -6.582 eV)
   360     360       --         0.113 au  H             1.00      2 S              12
                        (       3.073 eV)
   361     361       --         1.599 au  H             1.00      3 S              12
                        (      43.500 eV)
   362     362       --         0.445 au  H             1.00      1 P:x            12
                        (      12.103 eV)
   363     363       --         0.445 au  H             1.00      1 P:y            12
                        (      12.103 eV)
   364     364       --         0.445 au  H             1.00      1 P:z            12
                        (      12.103 eV)
   365     365       --         2.628 au  H             1.00      1 D:z2           12
                        (      71.505 eV)
   366     366       --         2.628 au  H             1.00      1 D:x2-y2        12
                        (      71.505 eV)
   367     367       --         2.628 au  H             1.00      1 D:xy           12
                        (      71.505 eV)
   368     368       --         2.628 au  H             1.00      1 D:xz           12
                        (      71.505 eV)
   369     369       --         2.628 au  H             1.00      1 D:yz           12
                        (      71.505 eV)
   370     370      1.000      -0.242 au  H             1.00      1 S              13
                        (      -6.582 eV)
   371     371       --         0.113 au  H             1.00      2 S              13
                        (       3.073 eV)
   372     372       --         1.599 au  H             1.00      3 S              13
                        (      43.500 eV)
   373     373       --         0.445 au  H             1.00      1 P:x            13
                        (      12.103 eV)
   374     374       --         0.445 au  H             1.00      1 P:y            13
                        (      12.103 eV)
   375     375       --         0.445 au  H             1.00      1 P:z            13
                        (      12.103 eV)
   376     376       --         2.628 au  H             1.00      1 D:z2           13
                        (      71.505 eV)
   377     377       --         2.628 au  H             1.00      1 D:x2-y2        13
                        (      71.505 eV)
   378     378       --         2.628 au  H             1.00      1 D:xy           13
                        (      71.505 eV)
   379     379       --         2.628 au  H             1.00      1 D:xz           13
                        (      71.505 eV)
   380     380       --         2.628 au  H             1.00      1 D:yz           13
                        (      71.505 eV)
   381     381      1.000      -0.242 au  H             1.00      1 S              14
                        (      -6.582 eV)
   382     382       --         0.113 au  H             1.00      2 S              14
                        (       3.073 eV)
   383     383       --         1.599 au  H             1.00      3 S              14
                        (      43.500 eV)
   384     384       --         0.445 au  H             1.00      1 P:x            14
                        (      12.103 eV)
   385     385       --         0.445 au  H             1.00      1 P:y            14
                        (      12.103 eV)
   386     386       --         0.445 au  H             1.00      1 P:z            14
                        (      12.103 eV)
   387     387       --         2.628 au  H             1.00      1 D:z2           14
                        (      71.505 eV)
   388     388       --         2.628 au  H             1.00      1 D:x2-y2        14
                        (      71.505 eV)
   389     389       --         2.628 au  H             1.00      1 D:xy           14
                        (      71.505 eV)
   390     390       --         2.628 au  H             1.00      1 D:xz           14
                        (      71.505 eV)
   391     391       --         2.628 au  H             1.00      1 D:yz           14
                        (      71.505 eV)
   392     392      1.000      -0.242 au  H             1.00      1 S              15
                        (      -6.582 eV)
   393     393       --         0.113 au  H             1.00      2 S              15
                        (       3.073 eV)
   394     394       --         1.599 au  H             1.00      3 S              15
                        (      43.500 eV)
   395     395       --         0.445 au  H             1.00      1 P:x            15
                        (      12.103 eV)
   396     396       --         0.445 au  H             1.00      1 P:y            15
                        (      12.103 eV)
   397     397       --         0.445 au  H             1.00      1 P:z            15
                        (      12.103 eV)
   398     398       --         2.628 au  H             1.00      1 D:z2           15
                        (      71.505 eV)
   399     399       --         2.628 au  H             1.00      1 D:x2-y2        15
                        (      71.505 eV)
   400     400       --         2.628 au  H             1.00      1 D:xy           15
                        (      71.505 eV)
   401     401       --         2.628 au  H             1.00      1 D:xz           15
                        (      71.505 eV)
   402     402       --         2.628 au  H             1.00      1 D:yz           15
                        (      71.505 eV)
   403     403      1.000      -0.242 au  H             1.00      1 S              16
                        (      -6.582 eV)
   404     404       --         0.113 au  H             1.00      2 S              16
                        (       3.073 eV)
   405     405       --         1.599 au  H             1.00      3 S              16
                        (      43.500 eV)
   406     406       --         0.445 au  H             1.00      1 P:x            16
                        (      12.103 eV)
   407     407       --         0.445 au  H             1.00      1 P:y            16
                        (      12.103 eV)
   408     408       --         0.445 au  H             1.00      1 P:z            16
                        (      12.103 eV)
   409     409       --         2.628 au  H             1.00      1 D:z2           16
                        (      71.505 eV)
   410     410       --         2.628 au  H             1.00      1 D:x2-y2        16
                        (      71.505 eV)
   411     411       --         2.628 au  H             1.00      1 D:xy           16
                        (      71.505 eV)
   412     412       --         2.628 au  H             1.00      1 D:xz           16
                        (      71.505 eV)
   413     413       --         2.628 au  H             1.00      1 D:yz           16
                        (      71.505 eV)
   414     414      1.000      -0.242 au  H             1.00      1 S              17
                        (      -6.582 eV)
   415     415       --         0.113 au  H             1.00      2 S              17
                        (       3.073 eV)
   416     416       --         1.599 au  H             1.00      3 S              17
                        (      43.500 eV)
   417     417       --         0.445 au  H             1.00      1 P:x            17
                        (      12.103 eV)
   418     418       --         0.445 au  H             1.00      1 P:y            17
                        (      12.103 eV)
   419     419       --         0.445 au  H             1.00      1 P:z            17
                        (      12.103 eV)
   420     420       --         2.628 au  H             1.00      1 D:z2           17
                        (      71.505 eV)
   421     421       --         2.628 au  H             1.00      1 D:x2-y2        17
                        (      71.505 eV)
   422     422       --         2.628 au  H             1.00      1 D:xy           17
                        (      71.505 eV)
   423     423       --         2.628 au  H             1.00      1 D:xz           17
                        (      71.505 eV)
   424     424       --         2.628 au  H             1.00      1 D:yz           17
                        (      71.505 eV)



 ================================
 (Slater-type)  F U N C T I O N S  ***  (Basis and Fit)  ***
 ================================
  

 Atom Type    1  (Pa)
 ==============

 Valence Basis Sets:  43
 -----------------------
   1 S 1028.000000
   1 S  240.000000
   1 S  107.000000
   2 S  131.500000
   2 S   46.500000
   3 S   59.100000
   3 S   25.450000
   4 S   15.550000
   4 S   11.050000
   5 S   10.200000
   5 S    7.100000
   6 S    4.950000
   6 S    3.250000
   7 S    2.350000
   7 S    1.550000
   7 S    1.020000
   2 P  240.000000
   2 P   84.000000
   2 P   43.600000
   3 P   24.750000
   3 P   17.850000
   4 P   17.650000
   4 P   12.100000
   5 P    8.500000
   5 P    5.900000
   6 P    4.400000
   6 P    3.000000
   6 P    2.100000
   3 D   33.750000
   3 D   21.750000
   4 D   15.300000
   4 D   10.450000
   5 D    7.150000
   5 D    4.600000
   6 D    3.000000
   6 D    1.700000
   6 D    0.980000
   4 F   17.100000
   4 F    9.350000
   5 F    5.850000
   5 F    3.150000
   5 F    1.550000
   7 P    1.550000

 Charge Fitting Sets (for the computation of the Coulomb Potential):  87
 -----------------------------------------------------------------------
   1 S 2056.000000
   1 S 1549.519000
   1 S 1167.806000
   1 S  880.126000
   1 S  663.313000
   1 S  499.911000
   1 S  376.761000
   1 S  283.949000
   1 S  214.000000
   1 S  127.280000
   2 S  140.220000
   2 S   93.850000
   3 S   92.230000
   3 S   65.710000
   4 S   61.900000
   4 S   45.910000
   5 S   42.420000
   5 S   32.370000
   6 S   29.610000
   6 S   23.090000
   7 S   21.000000
   7 S   16.670000
   8 S   15.120000
   8 S   12.170000
   9 S   11.020000
   9 S    8.970000
  10 S    8.120000
  10 S    6.680000
  11 S    6.050000
  11 S    5.020000
  12 S    4.550000
  12 S    3.800000
  12 S    3.180000
  13 S    2.880000
  13 S    2.420000
  13 S    2.040000
   2 P  150.600000
   3 P  125.870000
   4 P  103.260000
   5 P   84.350000
   6 P   68.960000
   7 P   56.560000
   7 P   40.600000
   8 P   33.430000
   8 P   24.490000
   9 P   20.250000
   9 P   15.090000
  10 P   12.530000
  10 P    9.470000
  11 P    7.900000
  11 P    6.040000
  12 P    5.060000
  12 P    3.910000
  13 P    3.290000
  13 P    2.570000
   3 D  128.750000
   4 D   91.090000
   5 D   65.210000
   6 D   47.270000
   7 D   34.690000
   8 D   25.740000
   9 D   19.290000
   9 D   13.060000
  10 D    9.880000
  10 D    6.820000
  11 D    5.210000
  11 D    3.650000
  12 D    2.810000
  12 D    2.000000
   4 F  116.350000
   5 F   72.360000
   6 F   46.140000
   7 F   30.070000
   8 F   19.970000
   9 F   13.480000
  10 F    9.240000
  10 F    5.790000
  11 F    4.020000
  11 F    2.570000
   5 G   52.950000
   6 G   31.380000
   7 G   19.110000
   8 G   11.920000
   9 G    7.580000
  10 G    4.910000
  11 G    3.230000
  11 G    1.960000

 Atom Type    2  (O)
 ==============

 Valence Basis Sets:  10
 -----------------------
   1 S    9.800000
   1 S    6.800000
   2 S    7.580000
   2 S    2.880000
   2 S    1.720000
   2 P    4.080000
   2 P    2.080000
   2 P    1.120000
   3 D    2.000000
   4 F    3.000000

 Charge Fitting Sets (for the computation of the Coulomb Potential):  22
 -----------------------------------------------------------------------
   1 S   19.600000
   2 S   22.600000
   2 S   15.680000
   2 S   10.890000
   2 S    7.560000
   3 S    7.690000
   3 S    5.650000
   3 S    4.150000
   3 S    3.050000
   3 S    2.240000
   2 P   12.860000
   2 P    7.680000
   3 P    6.780000
   3 P    4.390000
   3 P    2.840000
   3 D    8.800000
   3 D    5.580000
   3 D    3.530000
   3 D    2.240000
   4 F    6.200000
   4 F    3.700000
   5 G    4.500000

 Atom Type    3  (Cl)
 ==============

 Valence Basis Sets:  14
 -----------------------
   1 S   20.300000
   1 S   15.250000
   2 S    6.250000
   2 S    4.450000
   2 P    8.850000
   2 P    5.050000
   3 S    3.450000
   3 S    2.300000
   3 S    1.600000
   3 P    3.350000
   3 P    2.050000
   3 P    1.200000
   3 D    2.000000
   4 F    2.000000

 Charge Fitting Sets (for the computation of the Coulomb Potential):  30
 -----------------------------------------------------------------------
   1 S   40.600000
   1 S   24.830000
   2 S   28.080000
   2 S   19.200000
   3 S   19.250000
   3 S   13.970000
   3 S   10.130000
   4 S    9.710000
   4 S    7.320000
   4 S    5.510000
   5 S    5.170000
   5 S    4.000000
   5 S    3.100000
   5 S    2.400000
   2 P   29.150000
   3 P   21.740000
   4 P   16.160000
   4 P    9.600000
   5 P    7.180000
   5 P    4.480000
   5 P    2.800000
   3 D   21.950000
   4 D   15.750000
   4 D    9.040000
   5 D    6.550000
   5 D    3.960000
   5 D    2.400000
   4 F    5.000000
   4 F    3.000000
   5 G    3.500000

 Atom Type    4  (H)
 ==============

 Valence Basis Sets:   5
 -----------------------
   1 S    0.690000
   1 S    0.920000
   1 S    1.580000
   2 P    1.250000
   3 D    2.500000

 Charge Fitting Sets (for the computation of the Coulomb Potential):  11
 -----------------------------------------------------------------------
   1 S    3.160000
   1 S    2.090000
   1 S    1.380000
   2 S    1.500000
   2 P    4.000000
   2 P    2.650000
   2 P    1.750000
   3 D    4.000000
   3 D    2.500000
   4 F    3.000000
   5 G    4.000000


 BAS: List of all Elementary Cartesian Basis Functions
 =====================================================

 The numbering in the list below (to the right of the function characteristics) is referred
 to in print-outs of MO eigenvectors and Mulliken populations in the BAS representation
 (as contrasted to the SFO representation).

 Notes:
 1. The functions are characterized by a polynomial prefactor (powers of x,y,z and r) and
    an exponential decay factor alpha.
 2. Since the basis sets are specific for an atom TYPE, the individual functions occur on
    all atoms of that type.
 3. The word 'Core' in the left margin signals that it is a Core Function (CF) : not a
    degree of freedom in the valence set, but only used to ensure orthogonalization of
    the other valence basis functions on the frozen Core Orbitals.


 (power of) X  Y  Z  R     Alpha  on Atom
            ==========     =====     ==========

 Pa                                   1
                                  ---------------------------------------------------------------------------
            0  0  0  0  1028.000      1
            0  0  0  0   240.000      2
            0  0  0  0   107.000      3
            0  0  0  1   131.500      4
            0  0  0  1    46.500      5
            0  0  0  2    59.100      6
            0  0  0  2    25.450      7
            0  0  0  3    15.550      8
            0  0  0  3    11.050      9
            0  0  0  4    10.200     10
            0  0  0  4     7.100     11
            0  0  0  5     4.950     12
            0  0  0  5     3.250     13
            0  0  0  6     2.350     14
            0  0  0  6     1.550     15
            0  0  0  6     1.020     16
            1  0  0  0   240.000     17
            0  1  0  0   240.000     18
            0  0  1  0   240.000     19
            1  0  0  0    84.000     20
            0  1  0  0    84.000     21
            0  0  1  0    84.000     22
            1  0  0  0    43.600     23
[...]
                                   -1.05%     5 D:x2-y2         2.364  0.00     1 Pa
                                   -1.05%     2 P:y            10.811  0.00     2 O
                                    1.02%     3 S              43.500  0.00    15 H
                                    1.01%     1 P:x            -9.955  1.33     2 O
      -0.442  0.00   103 A         42.28%     5 D:z2            2.364  0.00     1 Pa
                                   16.29%     8 S               0.919  0.00     1 Pa
                                   12.64%     6 P:z            -0.239  0.00     1 Pa
                                   11.83%     4 D:z2           -1.800  0.20     1 Pa
                                    9.25%     4 D:x2-y2        -1.800  0.20     1 Pa
                                    7.63%     4 D:xy           -1.800  0.20     1 Pa
                                   -4.47%     2 P:z            10.811  0.00     3 O
                                    4.23%     5 D:x2-y2         2.364  0.00     1 Pa
                                   -4.16%     7 S              -4.760  2.00     1 Pa
                                    2.39%     5 D:xy            2.364  0.00     1 Pa
                                   -1.77%     2 P:z            10.811  0.00     5 O
                                    1.42%     6 P:y            -0.239  0.00     1 Pa
                                    1.35%     1 S              -6.582  1.00    17 H
                                   -1.30%     2 P:y            10.811  0.00     3 O
                                   -1.28%     3 P:y             7.199  0.00     8 Cl
                                   -1.28%     2 P:y            10.811  0.00     5 O
                                    1.28%     1 P:z            -9.955  1.33     5 O
                                    1.22%     5 D:xz            2.364  0.00     1 Pa
                                   -1.21%     3 P:z             7.199  0.00     8 Cl
      -0.225  0.00   104 A         47.34%     5 D:xz            2.364  0.00     1 Pa
                                   17.61%     5 D:xy            2.364  0.00     1 Pa
                                    8.22%     1 S              -6.582  1.00    13 H
                                    7.81%     1 S              -6.582  1.00    10 H
                                    7.67%     1 S              -6.582  1.00    11 H
                                    7.43%     1 S              -6.582  1.00    14 H
                                    6.51%     5 D:x2-y2         2.364  0.00     1 Pa
                                    5.87%     4 D:xz           -1.800  0.20     1 Pa
                                   -4.35%     2 S               3.073  0.00    13 H
                                    4.25%     5 D:yz            2.364  0.00     1 Pa
                                   -4.07%     2 S               3.073  0.00    10 H
                                   -3.80%     2 S               3.073  0.00    11 H
                                   -3.66%     2 S               3.073  0.00    14 H
                                   -2.70%     3 P:x             7.199  0.00     8 Cl
                                   -1.70%     2 P:z            10.811  0.00     2 O
                                   -1.65%     2 P:z            10.811  0.00     7 O
                                   -1.58%     2 P:x            10.811  0.00     5 O
                                    1.21%     1 P:z            -9.955  1.33     4 O
                                    1.18%     5 D:z2            2.364  0.00     1 Pa
                                    1.17%     1 P:z            -9.955  1.33     6 O
                                    1.10%     4 D:xy           -1.800  0.20     1 Pa
       0.040  0.00   105 A         25.67%     7 S              -4.760  2.00     1 Pa
                                   17.44%     8 S               0.919  0.00     1 Pa
                                   12.49%     1 S              -6.582  1.00    17 H
                                    9.46%     4 D:z2           -1.800  0.20     1 Pa
                                    7.79%     4 D:x2-y2        -1.800  0.20     1 Pa
                                    6.07%     4 D:xy           -1.800  0.20     1 Pa
                                    5.61%     5 D:z2            2.364  0.00     1 Pa
                                    5.59%     2 S               3.073  0.00    17 H
                                    4.24%     6 P:z            -0.239  0.00     1 Pa
                                   -3.92%     2 P:x            10.811  0.00     7 O
                                   -3.60%     3 P:z             7.199  0.00     8 Cl
                                    2.93%     1 S              -6.582  1.00    16 H
                                    2.80%     1 S              -6.582  1.00    12 H
                                   -2.21%     2 P:y            10.811  0.00     2 O
                                   -1.50%     2 P:z            10.811  0.00     2 O
                                    1.46%     2 S               3.073  0.00    16 H
                                    1.45%     2 S               3.073  0.00    12 H
                                    1.29%     1 P:x            -9.955  1.33     7 O
                                   -1.16%     2 P:x            10.811  0.00     2 O
                                    1.09%     2 S               3.073  0.00    11 H
                                    1.07%     2 S               3.073  0.00    14 H
                                    1.04%     1 P:y            -9.955  1.33     2 O
                                   -1.01%     2 P:y            10.811  0.00     3 O



 =======================================================================
 Electrostatic potential at the Nuclei due to electrons and other nuclei
 =======================================================================
  
         Atom                  Potential
         ----                  ---------
     1)   Pa                787.25288551
     2)   O                  22.17705181
     3)   Cl                 64.78304545
     4)   O                  22.26359169
     5)   H                   0.80176525
     6)   O                  22.16022008
     7)   H                   0.78561442
     8)   H                   0.78511970
     9)   H                   0.80262614
    10)   O                  22.28610627
    11)   O                  22.16000144
    12)   H                   0.78540137
    13)   H                   0.78487581
    14)   O                  22.17764908
    15)   H                   0.80237298
    16)   H                   0.80321189
    17)   H                   0.86105476
 Mulliken charges used for AMS results%charges...


    =====================
     CALCULATION RESULTS
    =====================

Energy (hartree)            -4.15592757


--------------
Atomic charges
--------------
  Index   Atom    Charge
      1     Pa    2.3122
      2      O   -0.3623
      3     Cl   -0.3271
      4      O   -0.6305
      5      H    0.2121
      6      O   -0.4079
      7      H    0.2263
      8      H    0.2405
      9      H    0.2231
     10      O   -0.7024
     11      O   -0.4069
     12      H    0.2260
     13      H    0.2400
     14      O   -0.3619
     15      H    0.2121
     16      H    0.2226
     17      H    0.0840


Dipole moment vector    (Debye):     0.24774331   -5.41576226    1.49285176
              magnitude (Debye):     5.62320762


-----------------------
Molecular orbitals info
-----------------------
n orbitals:              424
n spin:                    1

Note: only printing virtual orbitals with
      energy smaller than HOMO + 100. eV

HOMO (eV):             -11.5017
LUMO (eV):              -5.3361
HOMO-LUMO gap (eV):      6.1656

   Index   Energy (eV)    Occupation
     272       88.2739         0.000       
     271       87.1531         0.000       
     270       85.9696         0.000       
     269       85.7970         0.000       
     268       83.7522         0.000       
     267       83.1499         0.000       
     266       82.8846         0.000       
     265       81.7032         0.000       
     264       81.5579         0.000       
     263       80.8733         0.000       
     262       80.4245         0.000       
     261       79.4132         0.000       
     260       79.2331         0.000       
     259       78.9850         0.000       
     258       78.0880         0.000       
     257       77.8542         0.000       
     256       77.7382         0.000       
     255       75.9511         0.000       
     254       74.8941         0.000       
     253       73.5251         0.000       
     252       73.4697         0.000       
     251       73.1035         0.000       
     250       72.6609         0.000       
     249       71.9451         0.000       
     248       70.7971         0.000       
     247       69.5462         0.000       
     246       69.3312         0.000       
     245       68.7582         0.000       
     244       68.3245         0.000       
     243       67.0030         0.000       
     242       65.8416         0.000       
     241       65.6738         0.000       
     240       65.1479         0.000       
     239       64.3844         0.000       
     238       64.2983         0.000       
     237       62.9422         0.000       
     236       61.0802         0.000       
     235       60.6327         0.000       
     234       59.6830         0.000       
     233       58.9929         0.000       
     232       57.9840         0.000       
     231       57.7243         0.000       
     230       56.8470         0.000       
     229       54.8409         0.000       
     228       54.0158         0.000       
     227       53.6815         0.000       
     226       52.6419         0.000       
     225       52.2575         0.000       
     224       51.6760         0.000       
     223       50.8131         0.000       
     222       50.5118         0.000       
     221       49.3969         0.000       
     220       49.0709         0.000       
     219       48.5951         0.000       
     218       47.9584         0.000       
     217       46.4916         0.000       
     216       46.2867         0.000       
     215       44.5718         0.000       
     214       43.8784         0.000       
     213       42.9155         0.000       
     212       42.8160         0.000       
     211       42.4691         0.000       
     210       41.7528         0.000       
     209       41.1778         0.000       
     208       40.9795         0.000       
     207       40.6580         0.000       
     206       39.4501         0.000       
     205       38.9891         0.000       
     204       38.5308         0.000       
     203       37.8752         0.000       
     202       37.6036         0.000       
     201       37.5042         0.000       
     200       37.3504         0.000       
     199       36.4166         0.000       
     198       36.2191         0.000       
     197       35.6833         0.000       
     196       35.1953         0.000       
     195       34.9250         0.000       
     194       34.7345         0.000       
     193       33.6294         0.000       
     192       33.4248         0.000       
     191       33.1531         0.000       
     190       33.0950         0.000       
     189       32.8187         0.000       
     188       32.1690         0.000       
     187       32.1249         0.000       
     186       31.9311         0.000       
     185       31.8250         0.000       
     184       31.5576         0.000       
     183       31.2565         0.000       
     182       30.6796         0.000       
     181       30.6384         0.000       
     180       30.1962         0.000       
     179       30.1390         0.000       
     178       29.9298         0.000       
     177       29.0077         0.000       
     176       28.7330         0.000       
     175       28.2302         0.000       
     174       27.7895         0.000       
     173       27.0885         0.000       
     172       26.7968         0.000       
     171       25.7263         0.000       
     170       24.9092         0.000       
     169       24.3702         0.000       
     168       23.2952         0.000       
     167       22.4538         0.000       
     166       22.3255         0.000       
     165       20.9452         0.000       
     164       20.3734         0.000       
     163       19.7389         0.000       
     162       19.0551         0.000       
     161       19.0105         0.000       
     160       18.3214         0.000       
     159       18.1838         0.000       
     158       17.7316         0.000       
     157       16.6716         0.000       
     156       16.2581         0.000       
     155       15.4021         0.000       
     154       14.8603         0.000       
     153       14.1313         0.000       
     152       13.9622         0.000       
     151       13.7592         0.000       
     150       13.4889         0.000       
     149       13.4137         0.000       
     148       13.2230         0.000       
     147       12.8835         0.000       
     146       12.7821         0.000       
     145       12.6399         0.000       
     144       12.3730         0.000       
     143       12.2008         0.000       
     142       11.9869         0.000       
     141       11.4124         0.000       
     140       11.3670         0.000       
     139       11.0258         0.000       
     138       11.0197         0.000       
     137       10.6659         0.000       
     136       10.2571         0.000       
     135       10.1821         0.000       
     134        9.9271         0.000       
     133        9.6069         0.000       
     132        9.2082         0.000       
     131        8.8555         0.000       
     130        8.5116         0.000       
     129        8.3401         0.000       
     128        7.6934         0.000       
     127        7.3304         0.000       
     126        6.8885         0.000       
     125        6.4882         0.000       
     124        6.4364         0.000       
     123        6.2664         0.000       
     122        6.1471         0.000       
     121        5.9838         0.000       
     120        5.2636         0.000       
     119        4.9101         0.000       
     118        4.3887         0.000       
     117        4.1544         0.000       
     116        3.8181         0.000       
     115        3.7618         0.000       
     114        3.4936         0.000       
     113        3.0814         0.000       
     112        2.3832         0.000       
     111        1.9610         0.000       
     110        1.8634         0.000       
     109        1.5443         0.000       
     108        0.9749         0.000       
     107        0.7659         0.000       
     106        0.6372         0.000       
     105        0.0403         0.000       
     104       -0.2247         0.000       
     103       -0.4418         0.000       
     102       -0.6483         0.000       
     101       -0.9580         0.000       
     100       -1.2278         0.000       
      99       -1.3497         0.000       
      98       -1.4290         0.000       
      97       -1.7674         0.000       
      96       -1.9975         0.000       
      95       -2.3265         0.000       
      94       -2.4089         0.000       
      93       -3.0482         0.000       
      92       -3.4576         0.000       
      91       -3.7906         0.000       
      90       -4.1735         0.000       
      89       -4.5635         0.000       
      88       -4.8249         0.000       
      87       -4.8974         0.000       
      86       -4.9104         0.000       
      85       -5.2017         0.000       
      84       -5.2747         0.000       
      83       -5.3361         0.000 < LUMO
      82      -11.5017         2.000 < HOMO
      81      -11.9141         2.000       
      80      -11.9857         2.000       
      79      -12.9330         2.000       
      78      -12.9676         2.000       
      77      -13.1819         2.000       
      76      -13.2571         2.000       
      75      -13.5087         2.000       
      74      -14.6846         2.000       
      73      -14.7248         2.000       
      72      -14.8798         2.000       
      71      -15.4838         2.000       
      70      -16.4542         2.000       
      69      -16.8262         2.000       
      68      -17.5534         2.000       
      67      -17.7143         2.000       
      66      -18.1635         2.000       
      65      -20.4781         2.000       
      64      -20.5264         2.000       
      63      -20.8233         2.000       
      62      -20.8973         2.000       
      61      -23.8990         2.000       
      60      -25.7713         2.000       
      59      -27.9907         2.000       
      58      -28.9857         2.000       
      57      -31.8910         2.000       
      56      -33.1681         2.000       
      55      -33.9141         2.000       
      54      -33.9790         2.000       
      53      -34.4308         2.000       
      52      -34.4998         2.000       
      51      -53.8112         2.000       
      50     -103.5835         2.000       
      49     -103.6248         2.000       
      48     -103.6521         2.000       
      47     -103.7624         2.000       
      46     -103.7653         2.000       
      45     -199.6714         2.000       
      44     -199.6757         2.000       
      43     -199.7044         2.000       
      42     -210.7076         2.000       
      41     -211.0015         2.000       
      40     -211.0250         2.000       
      39     -263.2342         2.000       
      38     -309.4264         2.000       
      37     -364.6392         2.000       
      36     -364.6667         2.000       
      35     -364.6943         2.000       
      34     -364.8217         2.000       
      33     -364.8268         2.000       
      32     -364.9725         2.000       
      31     -364.9740         2.000       
      30     -526.0679         2.000       
      29     -526.3359         2.000       
      28     -528.5540         2.000       
      27     -528.5691         2.000       
      26     -529.0338         2.000       
      25     -529.0396         2.000       
      24     -716.4552         2.000       
      23     -716.5975         2.000       
      22     -716.6286         2.000       
      21     -716.8134         2.000       
      20     -716.8244         2.000       
      19    -1044.7293         2.000       
      18    -1045.0505         2.000       
      17    -1045.0985         2.000       
      16    -1363.1352         2.000       
      15    -2779.4339         2.000       
      14    -3488.3208         2.000       
      13    -3488.3754         2.000       
      12    -3488.3872         2.000       
      11    -3488.4741         2.000       
      10    -3488.4782         2.000       
       9    -4350.5255         2.000       
       8    -4350.7055         2.000       
       7    -4350.7296         2.000       
       6    -5321.7099         2.000       
       5   -17564.6014         2.000       
       4   -17564.6294         2.000       
       3   -17564.6301         2.000       
       2   -21040.4083         2.000       
       1  -112701.8799         2.000       

AMS application finished. Exiting.
NORMAL TERMINATION
     Total cpu time:     269.41
  Total system time:       7.58
 Total elapsed time:     277.89
