

 Parallel Execution: Process Information
 ==============================================================================
 Rank   Node Name                              NodeID   MyNodeRank  NodeMaster
    0   u-0-6.local                               0          0          0
    1   u-0-6.local                               0          1         -1
    2   u-0-6.local                               0          2         -1
    3   u-0-6.local                               0          3         -1
    4   u-0-6.local                               1          0          1
    5   u-0-6.local                               1          1         -1
    6   u-0-6.local                               1          2         -1
    7   u-0-6.local                               1          3         -1
    8   u-0-6.local                               2          0          2
    9   u-0-6.local                               2          1         -1
   10   u-0-6.local                               2          2         -1
   11   u-0-6.local                               2          3         -1
   12   u-0-6.local                               3          0          3
   13   u-0-6.local                               3          1         -1
   14   u-0-6.local                               3          2         -1
   15   u-0-6.local                               3          3         -1
 ==============================================================================


May use up to 31228MB of RAM as shared memory on node 0
May use up to 31250MB of RAM as shared memory on node 1
May use up to 31250MB of RAM as shared memory on node 2
May use up to 31250MB of RAM as shared memory on node 3

 *******************************************************************************
 *                                                                             *
 *  --------------------------------                                           *
 *   Amsterdam Modeling Suite (AMS)              2023.104                      *
 *  --------------------------------                                           *
 *                                               r115785 2023-10-06            *
 *                                                                             *
 *                                                                             *
 *                              =================                              *
 *                              |               |                              *
 *                              |     A M S     |                              *
 *                              |               |                              *
 *                              =================                              *
 *                                                                             *
 *                                                                             *
 *   Online information and documentation:  https://www.scm.com/support/       *
 *   E-mail:  support@scm.com   info@scm.com                                   *
 *                                                                             *
 *   Scientific publications using AMS results must be properly referenced     *
 *   See the User Manuals (or the web site) for recommended citations          *
 *   The terms and conditions of the End User License Agreement apply to       *
 *   the use of AMS, https://www.scm.com/license-terms/                        *
 *                                                                             *
 **********************  x86_64_linux_intel / intelmpi  ************************
 
 Licensed to: Dr. Val?rie Vallet / Laboratoire PhLAM UMR 8523 / Villeneuve d'Ascq Cedex / FRANCE 2024-02-19 16:59:55
 SCM User ID: u10325
  
 AMS 2023.104  RunTime: Mar27-2024 17:56:42  ShM Nodes: 4  Procs: 16

 AMS jobname: pao_cl3_2h2o.SR.b3lyp.dzp.opt-freq-solvation
 AMS jobid  : 1267795447

 Start   directory: /home/shaaban/ams/PhD/geometries-exafs/pao_cl3_3h2o/pao_cl3_h2o2/
 Results directory: /home/shaaban/ams/PhD/geometries-exafs/pao_cl3_3h2o/pao_cl3_h2o2/pao_cl3_2h2o.SR.b3lyp.dzp.opt-freq-solvation.results/
 Scratch directory: /state/partition2/shaaban/1012540.phlam-s-sakura/amstmp_pao_cl3_2h2o.SR.b3lyp.dzp.opt-freq-solvation_kid0.1267795447/


 Communication costs MPI_COMM_WORLD:     -1.442 usec per message,   0.0443 usec per 8-byte item
 Communication costs for intra-node:      0.373 usec per message,   0.0086 usec per 8-byte item

 RNG seed: -644012678 -429367494 1223872297 -1935264715 -1222142611 -1588056662 574970028 -973071746



                     *************************************************************************
                     *  ADF 2023.104  RunTime: Mar27-2024 17:56:44  ShM Nodes: 4  Procs: 16  *
                     *************************************************************************
  

       ***************************
       *  GEOMETRY OPTIMIZATION  *
       ***************************

Optimization Method                    Quasi Newton
Optimization Coordinates               Delocalized Coordinates
Optimize lattice                       F
 
 ------------------------------------------------------
 Convergence criteria (Hartree,Angstrom)
 ------------------------------------------------------
 Maximum gradient               0.001000000000
 Maximum rms gradient           0.000666666667
 Maximum step allowed           0.001000000000
 Maximum rms step allowed       0.000666666667
 Maximum energy change allowe   0.000110000000
 Maximum stress energy allowe   0.000500000000
 
Initial model Hessian                  Automatic Hessian
 
------------------------------------
Quasi-Newton Optimizer Parameters
------------------------------------
Hessian Update Method                  BFGS
Maximum number of steps                  250
First GDIIS cycle                          0
Maximum GDIIS vectors                      0
Trust radius (bohr)                        0.200000
Trust radius varies                        T
Constraints converged at all steps         T
Use projector                              T
 
 Rigid motions settings for: old optimizer
 Atomic rotations (x,y,z):     T T T
 Atomic translations (x,y,z):  T T T
 Tolerance:                   1.000000000000000E-006
 
--------
Geometry
--------
Formula: H4Cl3O3Pa
Atoms
  Index Symbol   x (angstrom)   y (angstrom)   z (angstrom)
      1     Pa     0.68653362    -0.21454176    -0.00000000       adf.R=2.200
      2      O     0.61585555     2.07436729     0.00000000       adf.R=1.517
      3     Cl     3.30540238    -0.13755862     0.00000000       adf.R=1.725
      4     Cl     0.68665774    -2.83454175     0.00000000       adf.R=1.725
      5     Cl    -1.93337097    -0.19218230     0.00000000       adf.R=1.725
      6      H    -2.07773537    -1.58952017     0.00000000       adf.R=1.350
      7      O    -1.11835362    -1.62396790     0.00000000       adf.R=1.517
      8      H    -0.91180952    -2.56148566     0.00000000       adf.R=1.350
      9      O     2.34825618    -1.79022514     0.00000000       adf.R=1.517
     10      H     2.14045789    -2.72746570     0.00000000       adf.R=1.350
     11      H     3.30515118    -1.71307612     0.00000000       adf.R=1.350
 
Total System Charge             0.00000
Bonding info available!
 
 
----------------
ADF Engine Input
----------------
 
 Basis
 Type DZP
 Core None
 End
 XC
 Hybrid B3LYP
 End
 Solvation
 Surf Delley
 Solv name=Water cav0=0.0 cav1=0.0067639
 Charged method=CONJ
 C-Mat POT
 SCF VAR ALL
 CSMRSP
 End
 NumericalQuality Good
 

 Title: *** (NO TITLE) ***

Number of symmetry operators: 2
Schoenflies symbol:           C(S)
 Using automatic Hessian for delocalized coordinates.
 *** GO1_GOStep1 ***

 SOLVATION
-------------------------------------------

  The Delley construction of COSMO surface surface is calculated

       Division Level for Surface Triangles (NDIV)                  3
       Final Division Level for Triangles (NFDIV)                   1
       Radius of the Solvent (RSOL)                           1.93000 angstr
  Dielectric Constant (EPSL)                                 78.39000

       COSMO equation is solved iteratively-               conjugate-gradient

       Maximun of Iterations for Charges (NCIX)                  1000
       Criterion for Charge convergence (CCNV)                1.0E-08

  COSMO charges included variationally in SCF

       COSMO included at every SCF cycle

  Geometry-dependent empirical factor                         0.00000

  C-Matrix calculated in cspmtx

  In cspmtx, C-Matrix calculated using fitted potential

-------------------------------------------



 -------------------------------------------
  COSMO surface
  Area             =          518.720
  Volume           =          876.388
  Number of Points =         1321
 -------------------------------------------



 ======================
 RI Hartree-Fock Scheme
 ======================
  
 Fit Set Quality     : GOOD
 Threshold Quality   : GOOD
 Integration Quality : GOOD
 Fit Generation Method : AUTO
 Response Quality    : DEFAULT
 Is Range Separated  :  F
 
 RIHartreeFock Dependency: number of modified vectors:           0
 cosmo_calcen: 0.5 (esolb+esolc) (Hartrees) =   -0.130993

 Solvation energy (screening term,uncorrected) =    -82.199090 kcal/mol

 Solvation energy (dispersion and cavitation terms) =      0.969966 kcal/mol
 Solvation Energy Contributions (Hartrees)
          esola   esolb+esolc
     0.13099257   -0.26198515
 esol last cycle   -0.13099257
  
 Hartree-Fock exchange energy:   -575.694437428624     
 cosmo_calcen: 0.5 (esolb+esolc) (Hartrees) =   -0.130993

 Solvation energy (screening term,uncorrected) =    -82.199134 kcal/mol

 Solvation energy (dispersion and cavitation terms) =      0.969966 kcal/mol
 Solvation Energy Contributions (Hartrees)
          esola   esolb+esolc
     0.13099264   -0.26198529
 esol last cycle   -0.13099264

 Energy gradients wrt nuclear displacements
 ==========================================

     Atom      Cartesian (a.u./angstrom)
                 X         Y         Z
 ----------------------------------------
     1 Pa   -0.012062 -0.230858  0.000000
     2 O    -0.007123  0.195573  0.000000
     3 Cl   -0.215417 -0.477901  0.000000
     4 Cl    0.237488  0.321518  0.000000
     5 Cl    0.354017 -0.834271  0.000000
     6 H     0.084893  0.123139  0.000000
     7 O    -0.174375  0.494397  0.000000
     8 H    -0.029795  0.122684  0.000000
     9 O    -0.133878  0.184288  0.000000
    10 H    -0.068647  0.063586  0.000000
    11 H    -0.035101  0.037845  0.000000
 ----------------------------------------
 Mulliken charges used for AMS results%charges...
 
----------------------------------------------------------------------
Geometry Convergence after Step   1       (Hartree/Angstrom,Angstrom)
----------------------------------------------------------------------
current energy                               -1.78511572 Hartree
energy change                      -1.78511572     0.00011000    F
constrained gradient max            0.83420673     0.00100000    F
constrained gradient rms            0.22857227     0.00066667    F
gradient max                        0.83420673
gradient rms                        0.22857227
cart. step max                      0.05292649     0.00100000    F
cart. step rms                      0.01656335     0.00066667    F
 
 
--------
Geometry
--------
Formula: H4Cl3O3Pa
Atoms
  Index Symbol   x (angstrom)   y (angstrom)   z (angstrom)
      1     Pa     0.68601122    -0.22420402    -0.00000000       adf.R=2.200
      2      O     0.61751899     2.04169159     0.00000000       adf.R=1.517
      3     Cl     3.31127680    -0.09930122     0.00000000       adf.R=1.725
      4     Cl     0.68191045    -2.85943952     0.00000000       adf.R=1.725
      5     Cl    -1.94510583    -0.13925581     0.00000000       adf.R=1.725
      6      H    -2.09757617    -1.57433263     0.00000000       adf.R=1.350
      7      O    -1.12527147    -1.63315405     0.00000000       adf.R=1.517
      8      H    -0.92106213    -2.58733857     0.00000000       adf.R=1.350
      9      O     2.36084081    -1.79347498     0.00000000       adf.R=1.517
     10      H     2.15399616    -2.74480120     0.00000000       adf.R=1.350
     11      H     3.32450622    -1.69658742     0.00000000       adf.R=1.350
 
Total System Charge             0.00000
Bonding info available!
 
 *** GO1_GOStep2 ***

 SOLVATION
-------------------------------------------

  The Delley construction of COSMO surface surface is calculated

       Division Level for Surface Triangles (NDIV)                  3
       Final Division Level for Triangles (NFDIV)                   1
       Radius of the Solvent (RSOL)                           1.93000 angstr
  Dielectric Constant (EPSL)                                 78.39000

       COSMO equation is solved iteratively-               conjugate-gradient

       Maximun of Iterations for Charges (NCIX)                  1000
       Criterion for Charge convergence (CCNV)                1.0E-08

  COSMO charges included variationally in SCF

       COSMO included at every SCF cycle

  Geometry-dependent empirical factor                         0.00000

  C-Matrix calculated in cspmtx

  In cspmtx, C-Matrix calculated using fitted potential

-------------------------------------------



 -------------------------------------------
  COSMO surface
  Area             =          521.990
  Volume           =          883.369
  Number of Points =         1333
 -------------------------------------------



 ======================
 RI Hartree-Fock Scheme
 ======================
  
 Fit Set Quality     : GOOD
 Threshold Quality   : GOOD
 Integration Quality : GOOD
 Fit Generation Method : AUTO
 Response Quality    : DEFAULT
 Is Range Separated  :  F
 
 RIHartreeFock Dependency: number of modified vectors:           0
 cosmo_calcen: 0.5 (esolb+esolc) (Hartrees) =   -0.124339

 Solvation energy (screening term,uncorrected) =    -78.023838 kcal/mol

 Solvation energy (dispersion and cavitation terms) =      0.976081 kcal/mol
 Solvation Energy Contributions (Hartrees)
          esola   esolb+esolc
     0.12433889   -0.24867778
 esol last cycle   -0.12433889
  
 Hartree-Fock exchange energy:   -575.633262747793     
 cosmo_calcen: 0.5 (esolb+esolc) (Hartrees) =   -0.124339

 Solvation energy (screening term,uncorrected) =    -78.023876 kcal/mol

 Solvation energy (dispersion and cavitation terms) =      0.976081 kcal/mol
 Solvation Energy Contributions (Hartrees)
          esola   esolb+esolc
     0.12433895   -0.24867790
 esol last cycle   -0.12433895

 Energy gradients wrt nuclear displacements
 ==========================================

     Atom      Cartesian (a.u./angstrom)
                 X         Y         Z
 ----------------------------------------
     1 Pa   -0.001434 -0.220094  0.000000
     2 O    -0.008043  0.202143  0.000000
     3 Cl   -0.188267 -0.438740  0.000000
     4 Cl    0.202060  0.301465  0.000000
     5 Cl    0.310313 -0.761332  0.000000
     6 H     0.042125  0.098641  0.000000
     7 O    -0.120381  0.486388  0.000000
     8 H    -0.013412  0.077099  0.000000
     9 O    -0.140902  0.181596  0.000000
    10 H    -0.063658  0.039875  0.000000
    11 H    -0.018402  0.032958  0.000000
 ----------------------------------------
 Mulliken charges used for AMS results%charges...

 dE(predicted):    -0.83094E-01, dE(actual):    -0.87248E-01, Trust radius:    0.400000, all in a.u.
 
----------------------------------------------------------------------
Geometry Convergence after Step   2       (Hartree/Angstrom,Angstrom)
----------------------------------------------------------------------
current energy                               -1.87236350 Hartree
energy change                      -0.08724779     0.00011000    F
constrained gradient max            0.76128108     0.00100000    F
constrained gradient rms            0.20987209     0.00066667    F
gradient max                        0.76128108
gradient rms                        0.20987209
cart. step max                      0.10543840     0.00100000    F
cart. step rms                      0.03288320     0.00066667    F
 
 
--------
Geometry
--------
Formula: H4Cl3O3Pa
Atoms
  Index Symbol   x (angstrom)   y (angstrom)   z (angstrom)
      1     Pa     0.68264742    -0.24509962    -0.00000000       adf.R=2.200
      2      O     0.62079164     1.96022756     0.00000000       adf.R=1.517
      3     Cl     3.31733478    -0.02259024     0.00000000       adf.R=1.725
      4     Cl     0.67336011    -2.90849912     0.00000000       adf.R=1.725
      5     Cl    -1.96391325    -0.03381741     0.00000000       adf.R=1.725
      6      H    -2.12271239    -1.54384295     0.00000000       adf.R=1.350
      7      O    -1.14068982    -1.65347500     0.00000000       adf.R=1.517
      8      H    -0.94418370    -2.62717868     0.00000000       adf.R=1.350
      9      O     2.38579740    -1.79968659     0.00000000       adf.R=1.517
     10      H     2.18244290    -2.77300925     0.00000000       adf.R=1.350
     11      H     3.35616996    -1.66322653     0.00000000       adf.R=1.350
 
Total System Charge             0.00000
Bonding info available!
 
 *** GO1_GOStep3 ***

 SOLVATION
-------------------------------------------

  The Delley construction of COSMO surface surface is calculated

       Division Level for Surface Triangles (NDIV)                  3
       Final Division Level for Triangles (NFDIV)                   1
       Radius of the Solvent (RSOL)                           1.93000 angstr
  Dielectric Constant (EPSL)                                 78.39000

       COSMO equation is solved iteratively-               conjugate-gradient

       Maximun of Iterations for Charges (NCIX)                  1000
       Criterion for Charge convergence (CCNV)                1.0E-08

  COSMO charges included variationally in SCF

       COSMO included at every SCF cycle

  Geometry-dependent empirical factor                         0.00000

  C-Matrix calculated in cspmtx

  In cspmtx, C-Matrix calculated using fitted potential

-------------------------------------------



 -------------------------------------------
  COSMO surface
  Area             =          523.980
  Volume           =          890.593
  Number of Points =         1341
 -------------------------------------------



 ======================
 RI Hartree-Fock Scheme
 ======================
  
 Fit Set Quality     : GOOD
 Threshold Quality   : GOOD
 Integration Quality : GOOD
 Fit Generation Method : AUTO
 Response Quality    : DEFAULT
 Is Range Separated  :  F
 
 RIHartreeFock Dependency: number of modified vectors:           0
 cosmo_calcen: 0.5 (esolb+esolc) (Hartrees) =   -0.112955

 Solvation energy (screening term,uncorrected) =    -70.880181 kcal/mol

 Solvation energy (dispersion and cavitation terms) =      0.979802 kcal/mol
 Solvation Energy Contributions (Hartrees)
          esola   esolb+esolc
     0.11295475   -0.22590949
 esol last cycle   -0.11295475
  
 Hartree-Fock exchange energy:   -575.555289922084     
 cosmo_calcen: 0.5 (esolb+esolc) (Hartrees) =   -0.112955

 Solvation energy (screening term,uncorrected) =    -70.880170 kcal/mol

 Solvation energy (dispersion and cavitation terms) =      0.979802 kcal/mol
 Solvation Energy Contributions (Hartrees)
          esola   esolb+esolc
     0.11295473   -0.22590946
 esol last cycle   -0.11295473

 Energy gradients wrt nuclear displacements
 ==========================================

     Atom      Cartesian (a.u./angstrom)
                 X         Y         Z
 ----------------------------------------
     1 Pa    0.009723 -0.204137  0.000000
     2 O    -0.009024  0.208481  0.000000
     3 Cl   -0.145691 -0.370316  0.000000
     4 Cl    0.146467  0.266913  0.000000
     5 Cl    0.231035 -0.611586  0.000000
     6 H    -0.003697  0.064616  0.000000
     7 O    -0.041524  0.422536  0.000000
     8 H     0.007868  0.021384  0.000000
     9 O    -0.143929  0.171149  0.000000
    10 H    -0.054818  0.005086  0.000000
    11 H     0.003591  0.025875  0.000000
 ----------------------------------------
 Mulliken charges used for AMS results%charges...

 dE(predicted):    -0.15150E+00, dE(actual):    -0.15122E+00, Trust radius:    0.800000, all in a.u.
 
----------------------------------------------------------------------
Geometry Convergence after Step   3       (Hartree/Angstrom,Angstrom)
----------------------------------------------------------------------
current energy                               -2.02358497 Hartree
energy change                      -0.15122147     0.00011000    F
constrained gradient max            0.61153533     0.00100000    F
constrained gradient rms            0.17429261     0.00066667    F
gradient max                        0.61153533
gradient rms                        0.17429261
cart. step max                      0.20224499     0.00100000    F
cart. step rms                      0.06705423     0.00066667    F
 
 
--------
Geometry
--------
Formula: H4Cl3O3Pa
Atoms
  Index Symbol   x (angstrom)   y (angstrom)   z (angstrom)
      1     Pa     0.67360171    -0.29334173    -0.00000000       adf.R=2.200
      2      O     0.63023930     1.75798256     0.00000000       adf.R=1.517
      3     Cl     3.31353336     0.13451545     0.00000000       adf.R=1.725
      4     Cl     0.65784889    -3.00706569     0.00000000       adf.R=1.725
      5     Cl    -1.98056444     0.16842750     0.00000000       adf.R=1.725
      6      H    -2.15026274    -1.47967342     0.00000000       adf.R=1.350
      7      O    -1.17783087    -1.69256814     0.00000000       adf.R=1.517
      8      H    -1.00100809    -2.68294940     0.00000000       adf.R=1.350
      9      O     2.43651766    -1.81095740     0.00000000       adf.R=1.517
     10      H     2.24176602    -2.81233964     0.00000000       adf.R=1.350
     11      H     3.40320426    -1.59222793     0.00000000       adf.R=1.350
 
Total System Charge             0.00000
Bonding info available!
 
 *** GO1_GOStep4 ***

 SOLVATION
-------------------------------------------

  The Delley construction of COSMO surface surface is calculated

       Division Level for Surface Triangles (NDIV)                  3
       Final Division Level for Triangles (NFDIV)                   1
       Radius of the Solvent (RSOL)                           1.93000 angstr
  Dielectric Constant (EPSL)                                 78.39000

       COSMO equation is solved iteratively-               conjugate-gradient

       Maximun of Iterations for Charges (NCIX)                  1000
       Criterion for Charge convergence (CCNV)                1.0E-08

  COSMO charges included variationally in SCF

       COSMO included at every SCF cycle

  Geometry-dependent empirical factor                         0.00000

  C-Matrix calculated in cspmtx

  In cspmtx, C-Matrix calculated using fitted potential

-------------------------------------------



 -------------------------------------------
  COSMO surface
  Area             =          533.392
  Volume           =          908.711
  Number of Points =         1351
 -------------------------------------------



 ======================
 RI Hartree-Fock Scheme
 ======================
  
 Fit Set Quality     : GOOD
 Threshold Quality   : GOOD
 Integration Quality : GOOD
 Fit Generation Method : AUTO
 Response Quality    : DEFAULT
 Is Range Separated  :  F
 
 RIHartreeFock Dependency: number of modified vectors:           0
 cosmo_calcen: 0.5 (esolb+esolc) (Hartrees) =   -0.095746

 Solvation energy (screening term,uncorrected) =    -60.081437 kcal/mol

 Solvation energy (dispersion and cavitation terms) =      0.997401 kcal/mol
 Solvation Energy Contributions (Hartrees)
          esola   esolb+esolc
     0.09574585   -0.19149171
 esol last cycle   -0.09574585
  
 Hartree-Fock exchange energy:   -575.486379853360     
 cosmo_calcen: 0.5 (esolb+esolc) (Hartrees) =   -0.095746

 Solvation energy (screening term,uncorrected) =    -60.081397 kcal/mol

 Solvation energy (dispersion and cavitation terms) =      0.997401 kcal/mol
 Solvation Energy Contributions (Hartrees)
          esola   esolb+esolc
     0.09574579   -0.19149158
 esol last cycle   -0.09574579

 Energy gradients wrt nuclear displacements
 ==========================================

     Atom      Cartesian (a.u./angstrom)
                 X         Y         Z
 ----------------------------------------
     1 Pa    0.009103 -0.171626  0.000000
     2 O    -0.008174  0.175036  0.000000
     3 Cl   -0.091093 -0.251179  0.000000
     4 Cl    0.078737  0.206137  0.000000
     5 Cl    0.118546 -0.345806  0.000000
     6 H    -0.024871  0.030583  0.000000
     7 O     0.043937  0.250852  0.000000
     8 H     0.024375 -0.020153  0.000000
     9 O    -0.126971  0.143304  0.000000
    10 H    -0.045202 -0.036304  0.000000
    11 H     0.021612  0.019155  0.000000
 ----------------------------------------
 Mulliken charges used for AMS results%charges...

 dE(predicted):    -0.22163E+00, dE(actual):    -0.22155E+00, Trust radius:    1.000000, all in a.u.
 
----------------------------------------------------------------------
Geometry Convergence after Step   4       (Hartree/Angstrom,Angstrom)
----------------------------------------------------------------------
current energy                               -2.24513261 Hartree
energy change                      -0.22154764     0.00011000    F
constrained gradient max            0.34575497     0.00100000    F
constrained gradient rms            0.11311335     0.00066667    F
gradient max                        0.34575497
gradient rms                        0.11311335
cart. step max                      0.21148419     0.00100000    F
cart. step rms                      0.06300693     0.00066667    F
 
 
--------
Geometry
--------
Formula: H4Cl3O3Pa
Atoms
  Index Symbol   x (angstrom)   y (angstrom)   z (angstrom)
      1     Pa     0.66725318    -0.33841513    -0.00000000       adf.R=2.200
      2      O     0.64777160     1.54649837     0.00000000       adf.R=1.517
      3     Cl     3.30363906     0.28281943     0.00000000       adf.R=1.725
      4     Cl     0.64297444    -3.10074097     0.00000000       adf.R=1.725
      5     Cl    -1.98085222     0.33893652     0.00000000       adf.R=1.725
      6      H    -2.17239424    -1.42333732     0.00000000       adf.R=1.350
      7      O    -1.22274458    -1.72291237     0.00000000       adf.R=1.517
      8      H    -1.06401942    -2.71722513     0.00000000       adf.R=1.350
      9      O     2.48803664    -1.82096576     0.00000000       adf.R=1.517
     10      H     2.30104033    -2.82865985     0.00000000       adf.R=1.350
     11      H     3.43634027    -1.52619563     0.00000000       adf.R=1.350
 
Total System Charge             0.00000
Bonding info available!
 
 *** GO1_GOStep5 ***

 SOLVATION
-------------------------------------------

  The Delley construction of COSMO surface surface is calculated

       Division Level for Surface Triangles (NDIV)                  3
       Final Division Level for Triangles (NFDIV)                   1
       Radius of the Solvent (RSOL)                           1.93000 angstr
  Dielectric Constant (EPSL)                                 78.39000

       COSMO equation is solved iteratively-               conjugate-gradient

       Maximun of Iterations for Charges (NCIX)                  1000
       Criterion for Charge convergence (CCNV)                1.0E-08

  COSMO charges included variationally in SCF

       COSMO included at every SCF cycle

  Geometry-dependent empirical factor                         0.00000

  C-Matrix calculated in cspmtx

  In cspmtx, C-Matrix calculated using fitted potential

-------------------------------------------



 -------------------------------------------
  COSMO surface
  Area             =          535.524
  Volume           =          914.707
  Number of Points =         1352
 -------------------------------------------



 ======================
 RI Hartree-Fock Scheme
 ======================
  
 Fit Set Quality     : GOOD
 Threshold Quality   : GOOD
 Integration Quality : GOOD
 Fit Generation Method : AUTO
 Response Quality    : DEFAULT
 Is Range Separated  :  F
 
 RIHartreeFock Dependency: number of modified vectors:           0
 cosmo_calcen: 0.5 (esolb+esolc) (Hartrees) =   -0.083655

 Solvation energy (screening term,uncorrected) =    -52.494344 kcal/mol

 Solvation energy (dispersion and cavitation terms) =      1.001389 kcal/mol
 Solvation Energy Contributions (Hartrees)
          esola   esolb+esolc
     0.08365505   -0.16731011
 esol last cycle   -0.08365505
  
 Hartree-Fock exchange energy:   -575.497586471485     
 cosmo_calcen: 0.5 (esolb+esolc) (Hartrees) =   -0.083655

 Solvation energy (screening term,uncorrected) =    -52.494332 kcal/mol

 Solvation energy (dispersion and cavitation terms) =      1.001389 kcal/mol
 Solvation Energy Contributions (Hartrees)
          esola   esolb+esolc
     0.08365503   -0.16731007
 esol last cycle   -0.08365503

 Energy gradients wrt nuclear displacements
 ==========================================

     Atom      Cartesian (a.u./angstrom)
                 X         Y         Z
 ----------------------------------------
     1 Pa    0.004691 -0.071108  0.000000
     2 O    -0.005179  0.060699  0.000000
     3 Cl   -0.062499 -0.162894  0.000000
     4 Cl    0.040203  0.157107  0.000000
     5 Cl    0.069664 -0.196904  0.000000
     6 H    -0.025294  0.020488  0.000000
     7 O     0.064987  0.146279  0.000000
     8 H     0.028288 -0.031401  0.000000
     9 O    -0.097955  0.108958  0.000000
    10 H    -0.039270 -0.049328  0.000000
    11 H     0.022365  0.018103  0.000000
 ----------------------------------------
 Mulliken charges used for AMS results%charges...
 Rebuilding optimization coordinates

 dE(predicted):    -0.14731E+00, dE(actual):    -0.12800E+00, Trust radius:    1.000000, all in a.u.
 
----------------------------------------------------------------------
Geometry Convergence after Step   5       (Hartree/Angstrom,Angstrom)
----------------------------------------------------------------------
current energy                               -2.37313106 Hartree
energy change                      -0.12799846     0.00011000    F
constrained gradient max            0.19688556     0.00100000    F
constrained gradient rms            0.07047247     0.00066667    F
gradient max                        0.19688556
gradient rms                        0.07047247
cart. step max                      0.21155980     0.00100000    F
cart. step rms                      0.07110194     0.00066667    F
 
 
--------
Geometry
--------
Formula: H4Cl3O3Pa
Atoms
  Index Symbol   x (angstrom)   y (angstrom)   z (angstrom)
      1     Pa     0.66048978    -0.39701894    -0.00000000       adf.R=2.200
      2      O     0.67709498     1.33493857     0.00000000       adf.R=1.517
      3     Cl     3.28925576     0.45775878     0.00000000       adf.R=1.725
      4     Cl     0.62597394    -3.22860409     0.00000000       adf.R=1.725
      5     Cl    -1.97473713     0.52850004     0.00000000       adf.R=1.725
      6      H    -2.19362295    -1.36870897     0.00000000       adf.R=1.350
      7      O    -1.28893583    -1.76226127     0.00000000       adf.R=1.517
      8      H    -1.15109399    -2.74661838     0.00000000       adf.R=1.350
      9      O     2.55634129    -1.83900513     0.00000000       adf.R=1.517
     10      H     2.37920984    -2.82973445     0.00000000       adf.R=1.350
     11      H     3.46706939    -1.45944399     0.00000000       adf.R=1.350
 
Total System Charge             0.00000
Bonding info available!
 
 *** GO1_GOStep6 ***

 SOLVATION
-------------------------------------------

  The Delley construction of COSMO surface surface is calculated

       Division Level for Surface Triangles (NDIV)                  3
       Final Division Level for Triangles (NFDIV)                   1
       Radius of the Solvent (RSOL)                           1.93000 angstr
  Dielectric Constant (EPSL)                                 78.39000

       COSMO equation is solved iteratively-               conjugate-gradient

       Maximun of Iterations for Charges (NCIX)                  1000
       Criterion for Charge convergence (CCNV)                1.0E-08

  COSMO charges included variationally in SCF

       COSMO included at every SCF cycle

  Geometry-dependent empirical factor                         0.00000

  C-Matrix calculated in cspmtx

  In cspmtx, C-Matrix calculated using fitted potential

-------------------------------------------



 -------------------------------------------
  COSMO surface
  Area             =          541.839
  Volume           =          927.027
  Number of Points =         1371
 -------------------------------------------



 ======================
 RI Hartree-Fock Scheme
 ======================
  
 Fit Set Quality     : GOOD
 Threshold Quality   : GOOD
 Integration Quality : GOOD
 Fit Generation Method : AUTO
 Response Quality    : DEFAULT
 Is Range Separated  :  F
 
 RIHartreeFock Dependency: number of modified vectors:           0
 cosmo_calcen: 0.5 (esolb+esolc) (Hartrees) =   -0.079176

 Solvation energy (screening term,uncorrected) =    -49.683748 kcal/mol

 Solvation energy (dispersion and cavitation terms) =      1.013197 kcal/mol
 Solvation Energy Contributions (Hartrees)
          esola   esolb+esolc
     0.07917608   -0.15835217
 esol last cycle   -0.07917608
  
 Hartree-Fock exchange energy:   -575.550326478787     
 cosmo_calcen: 0.5 (esolb+esolc) (Hartrees) =   -0.079176

 Solvation energy (screening term,uncorrected) =    -49.683764 kcal/mol

 Solvation energy (dispersion and cavitation terms) =      1.013197 kcal/mol
 Solvation Energy Contributions (Hartrees)
          esola   esolb+esolc
     0.07917611   -0.15835222
 esol last cycle   -0.07917611

 Energy gradients wrt nuclear displacements
 ==========================================

     Atom      Cartesian (a.u./angstrom)
                 X         Y         Z
 ----------------------------------------
     1 Pa    0.003090  0.145197  0.000000
     2 O    -0.000459 -0.164396  0.000000
     3 Cl   -0.045689 -0.083719  0.000000
     4 Cl    0.013667  0.102948  0.000000
     5 Cl    0.041985 -0.091536  0.000000
     6 H    -0.009667  0.016496  0.000000
     7 O     0.044320  0.057856  0.000000
     8 H     0.027884 -0.021237  0.000000
     9 O    -0.050807  0.054830  0.000000
    10 H    -0.033674 -0.034451  0.000000
    11 H     0.009349  0.018013  0.000000
 ----------------------------------------
 Mulliken charges used for AMS results%charges...

 dE(predicted):    -0.68394E-01, dE(actual):    -0.72230E-01, Trust radius:    1.000000, all in a.u.
 
----------------------------------------------------------------------
Geometry Convergence after Step   6       (Hartree/Angstrom,Angstrom)
----------------------------------------------------------------------
current energy                               -2.44536137 Hartree
energy change                      -0.07223030     0.00011000    F
constrained gradient max            0.16439620     0.00100000    F
constrained gradient rms            0.05319120     0.00066667    F
gradient max                        0.16439620
gradient rms                        0.05319120
cart. step max                      0.05608097     0.00100000    F
cart. step rms                      0.02001292     0.00066667    F
 
 
--------
Geometry
--------
Formula: H4Cl3O3Pa
Atoms
  Index Symbol   x (angstrom)   y (angstrom)   z (angstrom)
      1     Pa     0.65935578    -0.42472967    -0.00000000       adf.R=2.200
      2      O     0.67928300     1.35793942     0.00000000       adf.R=1.517
      3     Cl     3.29411317     0.50272082     0.00000000       adf.R=1.725
      4     Cl     0.62221519    -3.28468506     0.00000000       adf.R=1.725
      5     Cl    -1.97673552     0.57599685     0.00000000       adf.R=1.725
      6      H    -2.19917488    -1.36249080     0.00000000       adf.R=1.350
      7      O    -1.31540611    -1.78157468     0.00000000       adf.R=1.517
      8      H    -1.18596824    -2.75508213     0.00000000       adf.R=1.350
      9      O     2.58256456    -1.85477046     0.00000000       adf.R=1.517
     10      H     2.41004564    -2.83021605     0.00000000       adf.R=1.350
     11      H     3.47675247    -1.45330608     0.00000000       adf.R=1.350
 
Total System Charge             0.00000
Bonding info available!
 
 *** GO1_GOStep7 ***

 SOLVATION
-------------------------------------------

  The Delley construction of COSMO surface surface is calculated

       Division Level for Surface Triangles (NDIV)                  3
       Final Division Level for Triangles (NFDIV)                   1
       Radius of the Solvent (RSOL)                           1.93000 angstr
  Dielectric Constant (EPSL)                                 78.39000

       COSMO equation is solved iteratively-               conjugate-gradient

       Maximun of Iterations for Charges (NCIX)                  1000
       Criterion for Charge convergence (CCNV)                1.0E-08

  COSMO charges included variationally in SCF

       COSMO included at every SCF cycle

  Geometry-dependent empirical factor                         0.00000

  C-Matrix calculated in cspmtx

  In cspmtx, C-Matrix calculated using fitted potential

-------------------------------------------



 -------------------------------------------
  COSMO surface
  Area             =          547.537
  Volume           =          938.048
  Number of Points =         1388
 -------------------------------------------



 ======================
 RI Hartree-Fock Scheme
 ======================
  
 Fit Set Quality     : GOOD
 Threshold Quality   : GOOD
 Integration Quality : GOOD
 Fit Generation Method : AUTO
 Response Quality    : DEFAULT
 Is Range Separated  :  F
 
 RIHartreeFock Dependency: number of modified vectors:           0
 cosmo_calcen: 0.5 (esolb+esolc) (Hartrees) =   -0.085204

 Solvation energy (screening term,uncorrected) =    -53.466558 kcal/mol

 Solvation energy (dispersion and cavitation terms) =      1.023853 kcal/mol
 Solvation Energy Contributions (Hartrees)
          esola   esolb+esolc
     0.08520438   -0.17040875
 esol last cycle   -0.08520438
  
 Hartree-Fock exchange energy:   -575.484321203768     
 cosmo_calcen: 0.5 (esolb+esolc) (Hartrees) =   -0.085204

 Solvation energy (screening term,uncorrected) =    -53.466533 kcal/mol

 Solvation energy (dispersion and cavitation terms) =      1.023853 kcal/mol
 Solvation Energy Contributions (Hartrees)
          esola   esolb+esolc
     0.08520434   -0.17040867
 esol last cycle   -0.08520434

 Energy gradients wrt nuclear displacements
 ==========================================

     Atom      Cartesian (a.u./angstrom)
                 X         Y         Z
 ----------------------------------------
     1 Pa    0.001831  0.043717  0.000000
     2 O     0.000763 -0.058537  0.000000
     3 Cl   -0.035972 -0.061681  0.000000
     4 Cl    0.009481  0.081806  0.000000
     5 Cl    0.032355 -0.066999  0.000000
     6 H     0.004294  0.011870  0.000000
     7 O     0.019950  0.029117  0.000000
     8 H     0.025624 -0.005285  0.000000
     9 O    -0.026744  0.025713  0.000000
    10 H    -0.030047 -0.014541  0.000000
    11 H    -0.001533  0.014820  0.000000
 ----------------------------------------
 Mulliken charges used for AMS results%charges...

 dE(predicted):    -0.14047E-01, dE(actual):    -0.22482E-01, Trust radius:    1.000000, all in a.u.
 
----------------------------------------------------------------------
Geometry Convergence after Step   7       (Hartree/Angstrom,Angstrom)
----------------------------------------------------------------------
current energy                               -2.46784350 Hartree
energy change                      -0.02248213     0.00011000    F
constrained gradient max            0.08180607     0.00100000    F
constrained gradient rms            0.02889918     0.00066667    F
gradient max                        0.08180607
gradient rms                        0.02889918
cart. step max                      0.16745363     0.00100000    F
cart. step rms                      0.06135052     0.00066667    F
 
 
--------
Geometry
--------
Formula: H4Cl3O3Pa
Atoms
  Index Symbol   x (angstrom)   y (angstrom)   z (angstrom)
      1     Pa     0.65592920    -0.49193056    -0.00000000       adf.R=2.200
      2      O     0.68308236     1.30047891     0.00000000       adf.R=1.517
      3     Cl     3.30039770     0.65768409     0.00000000       adf.R=1.725
      4     Cl     0.61028070    -3.44546853     0.00000000       adf.R=1.725
      5     Cl    -1.97352785     0.74345048     0.00000000       adf.R=1.725
      6      H    -2.22448079    -1.32899710     0.00000000       adf.R=1.350
      7      O    -1.38916355    -1.82432558     0.00000000       adf.R=1.517
      8      H    -1.28976612    -2.78395753     0.00000000       adf.R=1.350
      9      O     2.65762372    -1.88357870     0.00000000       adf.R=1.517
     10      H     2.50344498    -2.83342795     0.00000000       adf.R=1.350
     11      H     3.51322473    -1.42012535     0.00000000       adf.R=1.350
 
Total System Charge             0.00000
Bonding info available!
 
 *** GO1_GOStep8 ***

 SOLVATION
-------------------------------------------

  The Delley construction of COSMO surface surface is calculated

       Division Level for Surface Triangles (NDIV)                  3
       Final Division Level for Triangles (NFDIV)                   1
       Radius of the Solvent (RSOL)                           1.93000 angstr
  Dielectric Constant (EPSL)                                 78.39000

       COSMO equation is solved iteratively-               conjugate-gradient

       Maximun of Iterations for Charges (NCIX)                  1000
       Criterion for Charge convergence (CCNV)                1.0E-08

  COSMO charges included variationally in SCF

       COSMO included at every SCF cycle

  Geometry-dependent empirical factor                         0.00000

  C-Matrix calculated in cspmtx

  In cspmtx, C-Matrix calculated using fitted potential

-------------------------------------------



 -------------------------------------------
  COSMO surface
  Area             =          562.128
  Volume           =          964.038
  Number of Points =         1415
 -------------------------------------------



 ======================
 RI Hartree-Fock Scheme
 ======================
  
 Fit Set Quality     : GOOD
 Threshold Quality   : GOOD
 Integration Quality : GOOD
 Fit Generation Method : AUTO
 Response Quality    : DEFAULT
 Is Range Separated  :  F
 
 RIHartreeFock Dependency: number of modified vectors:           0
 cosmo_calcen: 0.5 (esolb+esolc) (Hartrees) =   -0.096694

 Solvation energy (screening term,uncorrected) =    -60.676647 kcal/mol

 Solvation energy (dispersion and cavitation terms) =      1.051136 kcal/mol
 Solvation Energy Contributions (Hartrees)
          esola   esolb+esolc
     0.09669438   -0.19338876
 esol last cycle   -0.09669438
  
 Hartree-Fock exchange energy:   -575.409769227988     
 cosmo_calcen: 0.5 (esolb+esolc) (Hartrees) =   -0.096694

 Solvation energy (screening term,uncorrected) =    -60.676591 kcal/mol

 Solvation energy (dispersion and cavitation terms) =      1.051136 kcal/mol
 Solvation Energy Contributions (Hartrees)
          esola   esolb+esolc
     0.09669429   -0.19338858
 esol last cycle   -0.09669429

 Energy gradients wrt nuclear displacements
 ==========================================

     Atom      Cartesian (a.u./angstrom)
                 X         Y         Z
 ----------------------------------------
     1 Pa    0.000218  0.012165  0.000000
     2 O     0.001990 -0.021102  0.000000
     3 Cl   -0.024025 -0.014734  0.000000
     4 Cl    0.000491  0.033770  0.000000
     5 Cl    0.020629 -0.013835  0.000000
     6 H     0.018837  0.009881  0.000000
     7 O    -0.019981 -0.029827  0.000000
     8 H     0.023420  0.020246  0.000000
     9 O     0.017281 -0.037852  0.000000
    10 H    -0.023891  0.028216  0.000000
    11 H    -0.014969  0.013072  0.000000
 ----------------------------------------
 Mulliken charges used for AMS results%charges...
 Rebuilding optimization coordinates

 dE(predicted):    -0.22266E-01, dE(actual):    -0.26073E-01, Trust radius:    1.000000, all in a.u.
 
----------------------------------------------------------------------
Geometry Convergence after Step   8       (Hartree/Angstrom,Angstrom)
----------------------------------------------------------------------
current energy                               -2.49391646 Hartree
energy change                      -0.02607296     0.00011000    F
constrained gradient max            0.03782922     0.00100000    F
constrained gradient rms            0.01682555     0.00066667    F
gradient max                        0.03782922
gradient rms                        0.01682555
cart. step max                      0.05127704     0.00100000    F
cart. step rms                      0.01991157     0.00066667    F
 
 
--------
Geometry
--------
Formula: H4Cl3O3Pa
Atoms
  Index Symbol   x (angstrom)   y (angstrom)   z (angstrom)
      1     Pa     0.65553128    -0.50402540    -0.00000000       adf.R=2.200
      2      O     0.67552609     1.30144705     0.00000000       adf.R=1.517
      3     Cl     3.32259590     0.70171923     0.00000000       adf.R=1.725
      4     Cl     0.60801856    -3.49674557     0.00000000       adf.R=1.725
      5     Cl    -1.98960324     0.79203104     0.00000000       adf.R=1.725
      6      H    -2.24114988    -1.32360622     0.00000000       adf.R=1.350
      7      O    -1.41040280    -1.83123672     0.00000000       adf.R=1.517
      8      H    -1.32950274    -2.79797807     0.00000000       adf.R=1.350
      9      O     2.68055208    -1.88709533     0.00000000       adf.R=1.517
     10      H     2.54126356    -2.84742303     0.00000000       adf.R=1.350
     11      H     3.53421623    -1.41728482     0.00000000       adf.R=1.350
 
Total System Charge             0.00000
Bonding info available!
 
 *** GO1_GOStep9 ***

 SOLVATION
-------------------------------------------

  The Delley construction of COSMO surface surface is calculated

       Division Level for Surface Triangles (NDIV)                  3
       Final Division Level for Triangles (NFDIV)                   1
       Radius of the Solvent (RSOL)                           1.93000 angstr
  Dielectric Constant (EPSL)                                 78.39000

       COSMO equation is solved iteratively-               conjugate-gradient

       Maximun of Iterations for Charges (NCIX)                  1000
       Criterion for Charge convergence (CCNV)                1.0E-08

  COSMO charges included variationally in SCF

       COSMO included at every SCF cycle

  Geometry-dependent empirical factor                         0.00000

  C-Matrix calculated in cspmtx

  In cspmtx, C-Matrix calculated using fitted potential

-------------------------------------------



 -------------------------------------------
  COSMO surface
  Area             =          568.781
  Volume           =          975.855
  Number of Points =         1424
 -------------------------------------------



 ======================
 RI Hartree-Fock Scheme
 ======================
  
 Fit Set Quality     : GOOD
 Threshold Quality   : GOOD
 Integration Quality : GOOD
 Fit Generation Method : AUTO
 Response Quality    : DEFAULT
 Is Range Separated  :  F
 
 RIHartreeFock Dependency: number of modified vectors:           0
 cosmo_calcen: 0.5 (esolb+esolc) (Hartrees) =   -0.102334

 Solvation energy (screening term,uncorrected) =    -64.215441 kcal/mol

 Solvation energy (dispersion and cavitation terms) =      1.063577 kcal/mol
 Solvation Energy Contributions (Hartrees)
          esola   esolb+esolc
     0.10233381   -0.20466762
 esol last cycle   -0.10233381
  
 Hartree-Fock exchange energy:   -575.359853029723     
 cosmo_calcen: 0.5 (esolb+esolc) (Hartrees) =   -0.102334

 Solvation energy (screening term,uncorrected) =    -64.215411 kcal/mol

 Solvation energy (dispersion and cavitation terms) =      1.063577 kcal/mol
 Solvation Energy Contributions (Hartrees)
          esola   esolb+esolc
     0.10233376   -0.20466752
 esol last cycle   -0.10233376

 Energy gradients wrt nuclear displacements
 ==========================================

     Atom      Cartesian (a.u./angstrom)
                 X         Y         Z
 ----------------------------------------
     1 Pa   -0.000382 -0.010416  0.000000
     2 O    -0.000216  0.006676  0.000000
     3 Cl   -0.017409 -0.005819  0.000000
     4 Cl   -0.000940  0.020653  0.000000
     5 Cl    0.016906 -0.003387  0.000000
     6 H     0.015420  0.011498  0.000000
     7 O    -0.025096 -0.027639  0.000000
     8 H     0.022262  0.009839  0.000000
     9 O     0.025740 -0.028121  0.000000
    10 H    -0.023593  0.013173  0.000000
    11 H    -0.012691  0.013544  0.000000
 ----------------------------------------
 Mulliken charges used for AMS results%charges...

 dE(predicted):    -0.30041E-02, dE(actual):    -0.46161E-02, Trust radius:    1.000000, all in a.u.
 
----------------------------------------------------------------------
Geometry Convergence after Step   9       (Hartree/Angstrom,Angstrom)
----------------------------------------------------------------------
current energy                               -2.49853258 Hartree
energy change                      -0.00461612     0.00011000    F
constrained gradient max            0.02810782     0.00100000    F
constrained gradient rms            0.01359484     0.00066667    F
gradient max                        0.02810782
gradient rms                        0.01359484
cart. step max                      0.01931692     0.00100000    F
cart. step rms                      0.00866551     0.00066667    F
 
 
--------
Geometry
--------
Formula: H4Cl3O3Pa
Atoms
  Index Symbol   x (angstrom)   y (angstrom)   z (angstrom)
      1     Pa     0.65498862    -0.50433802    -0.00000000       adf.R=2.200
      2      O     0.67673048     1.29993878     0.00000000       adf.R=1.517
      3     Cl     3.33925064     0.71752342     0.00000000       adf.R=1.725
      4     Cl     0.60752526    -3.51606248     0.00000000       adf.R=1.725
      5     Cl    -2.00634226     0.80916817     0.00000000       adf.R=1.725
      6      H    -2.25081935    -1.32560667     0.00000000       adf.R=1.350
      7      O    -1.41697039    -1.83143768     0.00000000       adf.R=1.517
      8      H    -1.34804090    -2.80238991     0.00000000       adf.R=1.350
      9      O     2.68708312    -1.88576211     0.00000000       adf.R=1.517
     10      H     2.55936816    -2.85141676     0.00000000       adf.R=1.350
     11      H     3.54427167    -1.41981458     0.00000000       adf.R=1.350
 
Total System Charge             0.00000
Bonding info available!
 
 *** GO1_GOStep10 ***

 SOLVATION
-------------------------------------------

  The Delley construction of COSMO surface surface is calculated

       Division Level for Surface Triangles (NDIV)                  3
       Final Division Level for Triangles (NFDIV)                   1
       Radius of the Solvent (RSOL)                           1.93000 angstr
  Dielectric Constant (EPSL)                                 78.39000

       COSMO equation is solved iteratively-               conjugate-gradient

       Maximun of Iterations for Charges (NCIX)                  1000
       Criterion for Charge convergence (CCNV)                1.0E-08

  COSMO charges included variationally in SCF

       COSMO included at every SCF cycle

  Geometry-dependent empirical factor                         0.00000

  C-Matrix calculated in cspmtx

  In cspmtx, C-Matrix calculated using fitted potential

-------------------------------------------



 -------------------------------------------
  COSMO surface
  Area             =          572.015
  Volume           =          981.492
  Number of Points =         1430
 -------------------------------------------



 ======================
 RI Hartree-Fock Scheme
 ======================
  
 Fit Set Quality     : GOOD
 Threshold Quality   : GOOD
 Integration Quality : GOOD
 Fit Generation Method : AUTO
 Response Quality    : DEFAULT
 Is Range Separated  :  F
 
 RIHartreeFock Dependency: number of modified vectors:           0
 cosmo_calcen: 0.5 (esolb+esolc) (Hartrees) =   -0.104751

 Solvation energy (screening term,uncorrected) =    -65.732233 kcal/mol

 Solvation energy (dispersion and cavitation terms) =      1.069623 kcal/mol
 Solvation Energy Contributions (Hartrees)
          esola   esolb+esolc
     0.10475097   -0.20950194
 esol last cycle   -0.10475097
  
 Hartree-Fock exchange energy:   -575.343842215089     
 cosmo_calcen: 0.5 (esolb+esolc) (Hartrees) =   -0.104751

 Solvation energy (screening term,uncorrected) =    -65.732188 kcal/mol

 Solvation energy (dispersion and cavitation terms) =      1.069623 kcal/mol
 Solvation Energy Contributions (Hartrees)
          esola   esolb+esolc
     0.10475090   -0.20950180
 esol last cycle   -0.10475090

 Energy gradients wrt nuclear displacements
 ==========================================

     Atom      Cartesian (a.u./angstrom)
                 X         Y         Z
 ----------------------------------------
     1 Pa   -0.000676 -0.008904  0.000000
     2 O     0.000233  0.008101  0.000000
     3 Cl   -0.014539 -0.003374  0.000000
     4 Cl   -0.001209  0.015965  0.000000
     5 Cl    0.013854 -0.000732  0.000000
     6 H     0.012026  0.011879  0.000000
     7 O    -0.023626 -0.023776  0.000000
     8 H     0.020744  0.003742  0.000000
     9 O     0.025291 -0.022390  0.000000
    10 H    -0.022209  0.006174  0.000000
    11 H    -0.009889  0.013315  0.000000
 ----------------------------------------
 Mulliken charges used for AMS results%charges...

 dE(predicted):    -0.10485E-02, dE(actual):    -0.19025E-02, Trust radius:    1.000000, all in a.u.
 
----------------------------------------------------------------------
Geometry Convergence after Step  10       (Hartree/Angstrom,Angstrom)
----------------------------------------------------------------------
current energy                               -2.50043510 Hartree
energy change                      -0.00190252     0.00011000    F
constrained gradient max            0.02529378     0.00100000    F
constrained gradient rms            0.01182949     0.00066667    F
gradient max                        0.02529378
gradient rms                        0.01182949
cart. step max                      0.08262903     0.00100000    F
cart. step rms                      0.03430829     0.00066667    F
 
 
--------
Geometry
--------
Formula: H4Cl3O3Pa
Atoms
  Index Symbol   x (angstrom)   y (angstrom)   z (angstrom)
      1     Pa     0.65388780    -0.49721358    -0.00000000       adf.R=2.200
      2      O     0.67610373     1.29758363     0.00000000       adf.R=1.517
      3     Cl     3.42187966     0.76549346     0.00000000       adf.R=1.725
      4     Cl     0.60708878    -3.58415638     0.00000000       adf.R=1.725
      5     Cl    -2.08854043     0.86354118     0.00000000       adf.R=1.725
      6      H    -2.28765479    -1.34511212     0.00000000       adf.R=1.350
      7      O    -1.43296200    -1.82533125     0.00000000       adf.R=1.517
      8      H    -1.42142843    -2.80803664     0.00000000       adf.R=1.350
      9      O     2.70340562    -1.87616108     0.00000000       adf.R=1.517
     10      H     2.63352130    -2.85726735     0.00000000       adf.R=1.350
     11      H     3.58174382    -1.44353772     0.00000000       adf.R=1.350
 
Total System Charge             0.00000
Bonding info available!
 
 *** GO1_GOStep11 ***

 SOLVATION
-------------------------------------------

  The Delley construction of COSMO surface surface is calculated

       Division Level for Surface Triangles (NDIV)                  3
       Final Division Level for Triangles (NFDIV)                   1
       Radius of the Solvent (RSOL)                           1.93000 angstr
  Dielectric Constant (EPSL)                                 78.39000

       COSMO equation is solved iteratively-               conjugate-gradient

       Maximun of Iterations for Charges (NCIX)                  1000
       Criterion for Charge convergence (CCNV)                1.0E-08

  COSMO charges included variationally in SCF

       COSMO included at every SCF cycle

  Geometry-dependent empirical factor                         0.00000

  C-Matrix calculated in cspmtx

  In cspmtx, C-Matrix calculated using fitted potential

-------------------------------------------



 -------------------------------------------
  COSMO surface
  Area             =          583.719
  Volume           =         1002.013
  Number of Points =         1447
 -------------------------------------------



 ======================
 RI Hartree-Fock Scheme
 ======================
  
 Fit Set Quality     : GOOD
 Threshold Quality   : GOOD
 Integration Quality : GOOD
 Fit Generation Method : AUTO
 Response Quality    : DEFAULT
 Is Range Separated  :  F
 
 RIHartreeFock Dependency: number of modified vectors:           0
 cosmo_calcen: 0.5 (esolb+esolc) (Hartrees) =   -0.115041

 Solvation energy (screening term,uncorrected) =    -72.189095 kcal/mol

 Solvation energy (dispersion and cavitation terms) =      1.091509 kcal/mol
 Solvation Energy Contributions (Hartrees)
          esola   esolb+esolc
     0.11504063   -0.23008127
 esol last cycle   -0.11504063
  
 Hartree-Fock exchange energy:   -575.297907570585     
 cosmo_calcen: 0.5 (esolb+esolc) (Hartrees) =   -0.115041

 Solvation energy (screening term,uncorrected) =    -72.189109 kcal/mol

 Solvation energy (dispersion and cavitation terms) =      1.091509 kcal/mol
 Solvation Energy Contributions (Hartrees)
          esola   esolb+esolc
     0.11504066   -0.23008131
 esol last cycle   -0.11504066

 Energy gradients wrt nuclear displacements
 ==========================================

     Atom      Cartesian (a.u./angstrom)
                 X         Y         Z
 ----------------------------------------
     1 Pa   -0.001068  0.006186  0.000000
     2 O     0.000234  0.004495  0.000000
     3 Cl   -0.002886  0.001806  0.000000
     4 Cl   -0.001407  0.001563  0.000000
     5 Cl    0.002667  0.005312  0.000000
     6 H    -0.000150  0.008876  0.000000
     7 O    -0.010875 -0.008099  0.000000
     8 H     0.010031 -0.013310  0.000000
     9 O     0.015102 -0.002752  0.000000
    10 H    -0.012052 -0.012023  0.000000
    11 H     0.000403  0.007946  0.000000
 ----------------------------------------
 Mulliken charges used for AMS results%charges...

 dE(predicted):    -0.39269E-02, dE(actual):    -0.47690E-02, Trust radius:    1.000000, all in a.u.
 
----------------------------------------------------------------------
Geometry Convergence after Step  11       (Hartree/Angstrom,Angstrom)
----------------------------------------------------------------------
current energy                               -2.50520407 Hartree
energy change                      -0.00476897     0.00011000    F
constrained gradient max            0.01510822     0.00100000    F
constrained gradient rms            0.00613046     0.00066667    F
gradient max                        0.01510822
gradient rms                        0.00613046
cart. step max                      0.02997699     0.00100000    F
cart. step rms                      0.01013395     0.00066667    F
 
 
--------
Geometry
--------
Formula: H4Cl3O3Pa
Atoms
  Index Symbol   x (angstrom)   y (angstrom)   z (angstrom)
      1     Pa     0.65397397    -0.49342865    -0.00000000       adf.R=2.200
      2      O     0.67572473     1.29846432     0.00000000       adf.R=1.517
      3     Cl     3.45063314     0.77080695     0.00000000       adf.R=1.725
      4     Cl     0.60792267    -3.59896088     0.00000000       adf.R=1.725
      5     Cl    -2.11851742     0.86977963     0.00000000       adf.R=1.725
      6      H    -2.29516986    -1.35692221     0.00000000       adf.R=1.350
      7      O    -1.43136266    -1.81951758     0.00000000       adf.R=1.517
      8      H    -1.44040700    -2.80052864     0.00000000       adf.R=1.350
      9      O     2.70164325    -1.87122755     0.00000000       adf.R=1.517
     10      H     2.65446881    -2.85185552     0.00000000       adf.R=1.350
     11      H     3.58813544    -1.45680771     0.00000000       adf.R=1.350
 
Total System Charge             0.00000
Bonding info available!
 
 *** GO1_GOStep12 ***

 SOLVATION
-------------------------------------------

  The Delley construction of COSMO surface surface is calculated

       Division Level for Surface Triangles (NDIV)                  3
       Final Division Level for Triangles (NFDIV)                   1
       Radius of the Solvent (RSOL)                           1.93000 angstr
  Dielectric Constant (EPSL)                                 78.39000

       COSMO equation is solved iteratively-               conjugate-gradient

       Maximun of Iterations for Charges (NCIX)                  1000
       Criterion for Charge convergence (CCNV)                1.0E-08

  COSMO charges included variationally in SCF

       COSMO included at every SCF cycle

  Geometry-dependent empirical factor                         0.00000

  C-Matrix calculated in cspmtx

  In cspmtx, C-Matrix calculated using fitted potential

-------------------------------------------



 -------------------------------------------
  COSMO surface
  Area             =          585.857
  Volume           =         1004.869
  Number of Points =         1450
 -------------------------------------------



 ======================
 RI Hartree-Fock Scheme
 ======================
  
 Fit Set Quality     : GOOD
 Threshold Quality   : GOOD
 Integration Quality : GOOD
 Fit Generation Method : AUTO
 Response Quality    : DEFAULT
 Is Range Separated  :  F
 
 RIHartreeFock Dependency: number of modified vectors:           0
 cosmo_calcen: 0.5 (esolb+esolc) (Hartrees) =   -0.118239

 Solvation energy (screening term,uncorrected) =    -74.195834 kcal/mol

 Solvation energy (dispersion and cavitation terms) =      1.095508 kcal/mol
 Solvation Energy Contributions (Hartrees)
          esola   esolb+esolc
     0.11823858   -0.23647715
 esol last cycle   -0.11823858
  
 Hartree-Fock exchange energy:   -575.295098419477     
 cosmo_calcen: 0.5 (esolb+esolc) (Hartrees) =   -0.118239

 Solvation energy (screening term,uncorrected) =    -74.195789 kcal/mol

 Solvation energy (dispersion and cavitation terms) =      1.095508 kcal/mol
 Solvation Energy Contributions (Hartrees)
          esola   esolb+esolc
     0.11823850   -0.23647701
 esol last cycle   -0.11823850

 Energy gradients wrt nuclear displacements
 ==========================================

     Atom      Cartesian (a.u./angstrom)
                 X         Y         Z
 ----------------------------------------
     1 Pa   -0.001057  0.011024  0.000000
     2 O     0.000269  0.002048  0.000000
     3 Cl    0.000184  0.001784  0.000000
     4 Cl   -0.001035 -0.001067  0.000000
     5 Cl   -0.000342  0.005182  0.000000
     6 H    -0.001741  0.004284  0.000000
     7 O    -0.005510 -0.005916  0.000000
     8 H     0.005046 -0.010476  0.000000
     9 O     0.009082 -0.000443  0.000000
    10 H    -0.006556 -0.009616  0.000000
    11 H     0.001658  0.003195  0.000000
 ----------------------------------------
 Mulliken charges used for AMS results%charges...

 dE(predicted):    -0.51434E-03, dE(actual):    -0.71308E-03, Trust radius:    1.000000, all in a.u.
 
----------------------------------------------------------------------
Geometry Convergence after Step  12       (Hartree/Angstrom,Angstrom)
----------------------------------------------------------------------
current energy                               -2.50591716 Hartree
energy change                      -0.00071308     0.00011000    F
constrained gradient max            0.01102452     0.00100000    F
constrained gradient rms            0.00430771     0.00066667    F
gradient max                        0.01102452
gradient rms                        0.00430771
cart. step max                      0.01518142     0.00100000    F
cart. step rms                      0.00554984     0.00066667    F
 
 
--------
Geometry
--------
Formula: H4Cl3O3Pa
Atoms
  Index Symbol   x (angstrom)   y (angstrom)   z (angstrom)
      1     Pa     0.65450803    -0.49306391    -0.00000000       adf.R=2.200
      2      O     0.67483254     1.29784301     0.00000000       adf.R=1.517
      3     Cl     3.46415771     0.76711189     0.00000000       adf.R=1.725
      4     Cl     0.60919049    -3.60199351     0.00000000       adf.R=1.725
      5     Cl    -2.13369884     0.86510397     0.00000000       adf.R=1.725
      6      H    -2.29505903    -1.36502667     0.00000000       adf.R=1.350
      7      O    -1.42541125    -1.81287671     0.00000000       adf.R=1.517
      8      H    -1.44631917    -2.78979421     0.00000000       adf.R=1.350
      9      O     2.69544399    -1.86724033     0.00000000       adf.R=1.517
     10      H     2.66276828    -2.84450074     0.00000000       adf.R=1.350
     11      H     3.58663233    -1.46576064     0.00000000       adf.R=1.350
 
Total System Charge             0.00000
Bonding info available!
 
 *** GO1_GOStep13 ***

 SOLVATION
-------------------------------------------

  The Delley construction of COSMO surface surface is calculated

       Division Level for Surface Triangles (NDIV)                  3
       Final Division Level for Triangles (NFDIV)                   1
       Radius of the Solvent (RSOL)                           1.93000 angstr
  Dielectric Constant (EPSL)                                 78.39000

       COSMO equation is solved iteratively-               conjugate-gradient

       Maximun of Iterations for Charges (NCIX)                  1000
       Criterion for Charge convergence (CCNV)                1.0E-08

  COSMO charges included variationally in SCF

       COSMO included at every SCF cycle

  Geometry-dependent empirical factor                         0.00000

  C-Matrix calculated in cspmtx

  In cspmtx, C-Matrix calculated using fitted potential

-------------------------------------------



 -------------------------------------------
  COSMO surface
  Area             =          586.470
  Volume           =         1005.834
  Number of Points =         1451
 -------------------------------------------



 ======================
 RI Hartree-Fock Scheme
 ======================
  
 Fit Set Quality     : GOOD
 Threshold Quality   : GOOD
 Integration Quality : GOOD
 Fit Generation Method : AUTO
 Response Quality    : DEFAULT
 Is Range Separated  :  F
 
 RIHartreeFock Dependency: number of modified vectors:           0
 cosmo_calcen: 0.5 (esolb+esolc) (Hartrees) =   -0.119637

 Solvation energy (screening term,uncorrected) =    -75.073134 kcal/mol

 Solvation energy (dispersion and cavitation terms) =      1.096653 kcal/mol
 Solvation Energy Contributions (Hartrees)
          esola   esolb+esolc
     0.11963664   -0.23927328
 esol last cycle   -0.11963664
  
 Hartree-Fock exchange energy:   -575.301447239655     
 cosmo_calcen: 0.5 (esolb+esolc) (Hartrees) =   -0.119636

 Solvation energy (screening term,uncorrected) =    -75.073039 kcal/mol

 Solvation energy (dispersion and cavitation terms) =      1.096653 kcal/mol
 Solvation Energy Contributions (Hartrees)
          esola   esolb+esolc
     0.11963649   -0.23927298
 esol last cycle   -0.11963649

 Energy gradients wrt nuclear displacements
 ==========================================

     Atom      Cartesian (a.u./angstrom)
                 X         Y         Z
 ----------------------------------------
     1 Pa   -0.001011  0.012195  0.000000
     2 O     0.000204  0.000597  0.000000
     3 Cl    0.001359  0.000907  0.000000
     4 Cl   -0.000546 -0.001485  0.000000
     5 Cl   -0.001330  0.003857  0.000000
     6 H    -0.000767 -0.000402  0.000000
     7 O    -0.002530 -0.006100  0.000000
     8 H     0.001742 -0.003683  0.000000
     9 O     0.004511 -0.001786  0.000000
    10 H    -0.002689 -0.003220  0.000000
    11 H     0.001057 -0.000881  0.000000
 ----------------------------------------
 Mulliken charges used for AMS results%charges...

 dE(predicted):    -0.24040E-03, dE(actual):    -0.30802E-03, Trust radius:    1.000000, all in a.u.
 
----------------------------------------------------------------------
Geometry Convergence after Step  13       (Hartree/Angstrom,Angstrom)
----------------------------------------------------------------------
current energy                               -2.50622517 Hartree
energy change                      -0.00030802     0.00011000    F
constrained gradient max            0.01219503     0.00100000    F
constrained gradient rms            0.00289173     0.00066667    F
gradient max                        0.01219503
gradient rms                        0.00289173
cart. step max                      0.00805824     0.00100000    F
cart. step rms                      0.00326373     0.00066667    F
 
 
--------
Geometry
--------
Formula: H4Cl3O3Pa
Atoms
  Index Symbol   x (angstrom)   y (angstrom)   z (angstrom)
      1     Pa     0.65517060    -0.49678872    -0.00000000       adf.R=2.200
      2      O     0.67399237     1.29423971     0.00000000       adf.R=1.517
      3     Cl     3.46357321     0.76193978     0.00000000       adf.R=1.725
      4     Cl     0.61034708    -3.59932191     0.00000000       adf.R=1.725
      5     Cl    -2.13460043     0.85787385     0.00000000       adf.R=1.725
      6      H    -2.29156356    -1.36657421     0.00000000       adf.R=1.350
      7      O    -1.41963143    -1.80749665     0.00000000       adf.R=1.517
      8      H    -1.44440020    -2.78173597     0.00000000       adf.R=1.350
      9      O     2.68947150    -1.86487744     0.00000000       adf.R=1.517
     10      H     2.66280360    -2.83981780     0.00000000       adf.R=1.350
     11      H     3.58188232    -1.46763847     0.00000000       adf.R=1.350
 
Total System Charge             0.00000
Bonding info available!
 
 *** GO1_GOStep14 ***

 SOLVATION
-------------------------------------------

  The Delley construction of COSMO surface surface is calculated

       Division Level for Surface Triangles (NDIV)                  3
       Final Division Level for Triangles (NFDIV)                   1
       Radius of the Solvent (RSOL)                           1.93000 angstr
  Dielectric Constant (EPSL)                                 78.39000

       COSMO equation is solved iteratively-               conjugate-gradient

       Maximun of Iterations for Charges (NCIX)                  1000
       Criterion for Charge convergence (CCNV)                1.0E-08

  COSMO charges included variationally in SCF

       COSMO included at every SCF cycle

  Geometry-dependent empirical factor                         0.00000

  C-Matrix calculated in cspmtx

  In cspmtx, C-Matrix calculated using fitted potential

-------------------------------------------



 -------------------------------------------
  COSMO surface
  Area             =          585.947
  Volume           =         1004.655
  Number of Points =         1443
 -------------------------------------------



 ======================
 RI Hartree-Fock Scheme
 ======================
  
 Fit Set Quality     : GOOD
 Threshold Quality   : GOOD
 Integration Quality : GOOD
 Fit Generation Method : AUTO
 Response Quality    : DEFAULT
 Is Range Separated  :  F
 
 RIHartreeFock Dependency: number of modified vectors:           0
 cosmo_calcen: 0.5 (esolb+esolc) (Hartrees) =   -0.119586

 Solvation energy (screening term,uncorrected) =    -75.041124 kcal/mol

 Solvation energy (dispersion and cavitation terms) =      1.095675 kcal/mol
 Solvation Energy Contributions (Hartrees)
          esola   esolb+esolc
     0.11958563   -0.23917126
 esol last cycle   -0.11958563
  
 Hartree-Fock exchange energy:   -575.309082827170     
 cosmo_calcen: 0.5 (esolb+esolc) (Hartrees) =   -0.119586

 Solvation energy (screening term,uncorrected) =    -75.041128 kcal/mol

 Solvation energy (dispersion and cavitation terms) =      1.095675 kcal/mol
 Solvation Energy Contributions (Hartrees)
          esola   esolb+esolc
     0.11958564   -0.23917128
 esol last cycle   -0.11958564

 Energy gradients wrt nuclear displacements
 ==========================================

     Atom      Cartesian (a.u./angstrom)
                 X         Y         Z
 ----------------------------------------
     1 Pa   -0.000922  0.010957  0.000000
     2 O     0.000157 -0.000142  0.000000
     3 Cl    0.001010  0.000084  0.000000
     4 Cl   -0.000078 -0.000860  0.000000
     5 Cl   -0.000836  0.002457  0.000000
     6 H     0.000387 -0.002911  0.000000
     7 O    -0.001191 -0.005997  0.000000
     8 H     0.000530  0.001016  0.000000
     9 O     0.001861 -0.002913  0.000000
    10 H    -0.001275  0.001069  0.000000
    11 H     0.000357 -0.002760  0.000000
 ----------------------------------------
 Mulliken charges used for AMS results%charges...

 dE(predicted):    -0.10540E-03, dE(actual):    -0.99655E-04, Trust radius:    1.000000, all in a.u.
 
----------------------------------------------------------------------
Geometry Convergence after Step  14       (Hartree/Angstrom,Angstrom)
----------------------------------------------------------------------
current energy                               -2.50632483 Hartree
energy change                      -0.00009965     0.00011000    T
constrained gradient max            0.01095679     0.00100000    F
constrained gradient rms            0.00245711     0.00066667    F
gradient max                        0.01095679
gradient rms                        0.00245711
cart. step max                      0.00868220     0.00100000    F
cart. step rms                      0.00403141     0.00066667    F
 
 
--------
Geometry
--------
Formula: H4Cl3O3Pa
Atoms
  Index Symbol   x (angstrom)   y (angstrom)   z (angstrom)
      1     Pa     0.65606155    -0.50547092    -0.00000000       adf.R=2.200
      2      O     0.67285313     1.28610675     0.00000000       adf.R=1.517
      3     Cl     3.45609911     0.75859892     0.00000000       adf.R=1.725
      4     Cl     0.61161057    -3.59677090     0.00000000       adf.R=1.725
      5     Cl    -2.12878122     0.85153065     0.00000000       adf.R=1.725
      6      H    -2.28711615    -1.36349909     0.00000000       adf.R=1.350
      7      O    -1.41421918    -1.80160427     0.00000000       adf.R=1.517
      8      H    -1.44116935    -2.77452670     0.00000000       adf.R=1.350
      9      O     2.68395842    -1.86287271     0.00000000       adf.R=1.517
     10      H     2.66184921    -2.83674880     0.00000000       adf.R=1.350
     11      H     3.57589898    -1.46494077     0.00000000       adf.R=1.350
 
Total System Charge             0.00000
Bonding info available!
 
 *** GO1_GOStep15 ***

 SOLVATION
-------------------------------------------

  The Delley construction of COSMO surface surface is calculated

       Division Level for Surface Triangles (NDIV)                  3
       Final Division Level for Triangles (NFDIV)                   1
       Radius of the Solvent (RSOL)                           1.93000 angstr
  Dielectric Constant (EPSL)                                 78.39000

       COSMO equation is solved iteratively-               conjugate-gradient

       Maximun of Iterations for Charges (NCIX)                  1000
       Criterion for Charge convergence (CCNV)                1.0E-08

  COSMO charges included variationally in SCF

       COSMO included at every SCF cycle

  Geometry-dependent empirical factor                         0.00000

  C-Matrix calculated in cspmtx

  In cspmtx, C-Matrix calculated using fitted potential

-------------------------------------------



 -------------------------------------------
  COSMO surface
  Area             =          584.739
  Volume           =         1002.385
  Number of Points =         1437
 -------------------------------------------



 ======================
 RI Hartree-Fock Scheme
 ======================
  
 Fit Set Quality     : GOOD
 Threshold Quality   : GOOD
 Integration Quality : GOOD
 Fit Generation Method : AUTO
 Response Quality    : DEFAULT
 Is Range Separated  :  F
 
 RIHartreeFock Dependency: number of modified vectors:           0
 cosmo_calcen: 0.5 (esolb+esolc) (Hartrees) =   -0.119282

 Solvation energy (screening term,uncorrected) =    -74.850363 kcal/mol

 Solvation energy (dispersion and cavitation terms) =      1.093416 kcal/mol
 Solvation Energy Contributions (Hartrees)
          esola   esolb+esolc
     0.11928163   -0.23856327
 esol last cycle   -0.11928163
  
 Hartree-Fock exchange energy:   -575.316490114218     
 cosmo_calcen: 0.5 (esolb+esolc) (Hartrees) =   -0.119282

 Solvation energy (screening term,uncorrected) =    -74.850367 kcal/mol

 Solvation energy (dispersion and cavitation terms) =      1.093416 kcal/mol
 Solvation Energy Contributions (Hartrees)
          esola   esolb+esolc
     0.11928164   -0.23856328
 esol last cycle   -0.11928164

 Energy gradients wrt nuclear displacements
 ==========================================

     Atom      Cartesian (a.u./angstrom)
                 X         Y         Z
 ----------------------------------------
     1 Pa   -0.000800  0.008130  0.000000
     2 O     0.000078 -0.000650  0.000000
     3 Cl   -0.000176 -0.000473  0.000000
     4 Cl    0.000450 -0.000147  0.000000
     5 Cl    0.000592  0.001045  0.000000
     6 H     0.000881 -0.004311  0.000000
     7 O     0.000293 -0.004147  0.000000
     8 H     0.000093  0.003512  0.000000
     9 O    -0.000555 -0.002566  0.000000
    10 H    -0.000807  0.003211  0.000000
    11 H    -0.000049 -0.003605  0.000000
 ----------------------------------------
 Mulliken charges used for AMS results%charges...

 dE(predicted):    -0.93498E-04, dE(actual):    -0.12797E-03, Trust radius:    1.000000, all in a.u.
 
----------------------------------------------------------------------
Geometry Convergence after Step  15       (Hartree/Angstrom,Angstrom)
----------------------------------------------------------------------
current energy                               -2.50645280 Hartree
energy change                      -0.00012797     0.00011000    F
constrained gradient max            0.00813044     0.00100000    F
constrained gradient rms            0.00212437     0.00066667    F
gradient max                        0.00813044
gradient rms                        0.00212437
cart. step max                      0.01127273     0.00100000    F
cart. step rms                      0.00392072     0.00066667    F
 
 
--------
Geometry
--------
Formula: H4Cl3O3Pa
Atoms
  Index Symbol   x (angstrom)   y (angstrom)   z (angstrom)
      1     Pa     0.65684808    -0.51674365    -0.00000000       adf.R=2.200
      2      O     0.67177472     1.27543166     0.00000000       adf.R=1.517
      3     Cl     3.44787557     0.76083574     0.00000000       adf.R=1.725
      4     Cl     0.61242027    -3.59877387     0.00000000       adf.R=1.725
      5     Cl    -2.12197389     0.85116958     0.00000000       adf.R=1.725
      6      H    -2.28479042    -1.35726402     0.00000000       adf.R=1.350
[...]
     7     O      -0.000000   0.000000  -0.036168
     8     H      -0.000000  -0.000000  -0.029801
     9     O       0.000000   0.000000   0.005565
    10     H      -0.000000  -0.000000   0.000688
    11     H       0.000000  -0.000000  -0.153802
 
 Mode:    26      Frequency (cm-1):      826.6821     Intensity (km/mol):      129.4508     Irrep: A''
 Index  Atom      ---- Displacements (x/y/z) ----
     1    Pa      -0.000000   0.000000   0.000145
     2     O      -0.000000  -0.000000  -0.002744
     3    Cl      -0.000000  -0.000000  -0.010131
     4    Cl       0.000000   0.000000  -0.000125
     5    Cl      -0.000000   0.000000  -0.001521
     6     H      -0.000000  -0.000000   0.153703
     7     O       0.000000  -0.000000  -0.005580
     8     H       0.000000   0.000000  -0.006402
     9     O      -0.000000   0.000000  -0.037334
    10     H      -0.000000  -0.000000  -0.034077
    11     H       0.000000  -0.000000   0.986730
 
 Mode:    27      Frequency (cm-1):      891.8618     Intensity (km/mol):      398.2881     Irrep: A'
 Index  Atom      ---- Displacements (x/y/z) ----
     1    Pa      -0.001328  -0.066051   0.000000
     2     O       0.017238   0.970191   0.000000
     3    Cl       0.001695   0.003140   0.000000
     4    Cl      -0.000322  -0.011149  -0.000000
     5    Cl      -0.000995   0.003744   0.000000
     6     H      -0.147773  -0.000723   0.000000
     7     O      -0.039929   0.003239  -0.000000
     8     H       0.070430  -0.079423  -0.000000
     9     O       0.041118  -0.002552  -0.000000
    10     H      -0.036504  -0.056092  -0.000000
    11     H       0.112810   0.017413   0.000000
 
 Mode:    28      Frequency (cm-1):     1567.1940     Intensity (km/mol):      116.4053     Irrep: A'
 Index  Atom      ---- Displacements (x/y/z) ----
     1    Pa       0.000075  -0.000061   0.000000
     2     O       0.000627   0.001165   0.000000
     3    Cl      -0.002115   0.001915  -0.000000
     4    Cl       0.000173  -0.000119  -0.000000
     5    Cl       0.000089   0.000081  -0.000000
     6     H      -0.025319  -0.018913   0.000000
     7     O       0.002318   0.000305  -0.000000
     8     H      -0.017800   0.013206   0.000000
     9     O      -0.067383   0.006961  -0.000000
    10     H       0.489955   0.328596   0.000000
    11     H       0.622924  -0.507779  -0.000000
 
 Mode:    29      Frequency (cm-1):     1597.1709     Intensity (km/mol):      135.3834     Irrep: A'
 Index  Atom      ---- Displacements (x/y/z) ----
     1    Pa       0.000130   0.000002   0.000000
     2     O      -0.000904   0.000951  -0.000000
     3    Cl      -0.000006  -0.000023  -0.000000
     4    Cl      -0.000225  -0.000196  -0.000000
     5    Cl       0.001974   0.001591  -0.000000
     6     H      -0.620968  -0.460303  -0.000000
     7     O       0.066440   0.001291  -0.000000
     8     H      -0.507721   0.372616   0.000000
     9     O       0.002510  -0.000266   0.000000
    10     H      -0.018206  -0.012578  -0.000000
    11     H      -0.023318   0.020804   0.000000
 
 Mode:    30      Frequency (cm-1):     2213.0166     Intensity (km/mol):     6492.5065     Irrep: A'
 Index  Atom      ---- Displacements (x/y/z) ----
     1    Pa       0.001090  -0.000021   0.000000
     2     O      -0.000586  -0.000180   0.000000
     3    Cl      -0.002143  -0.002352   0.000000
     4    Cl      -0.000175   0.000071   0.000000
     5    Cl      -0.002179   0.002628   0.000000
     6     H      -0.419736   0.602058  -0.000000
     7     O       0.023941  -0.042045   0.000000
     8     H      -0.006635  -0.027682   0.000000
     9     O       0.023800   0.037639   0.000000
    10     H      -0.004211   0.025979  -0.000000
    11     H      -0.411657  -0.534823   0.000000
 
 Mode:    31      Frequency (cm-1):     2236.0721     Intensity (km/mol):     6598.3326     Irrep: A'
 Index  Atom      ---- Displacements (x/y/z) ----
     1    Pa       0.000046  -0.000226   0.000000
     2     O       0.000061   0.005423   0.000000
     3    Cl      -0.002188  -0.002391   0.000000
     4    Cl      -0.000042  -0.001389   0.000000
     5    Cl       0.001874  -0.002256  -0.000000
     6     H       0.384225  -0.554895  -0.000000
     7     O      -0.023663   0.038629  -0.000000
     8     H       0.002313   0.025367  -0.000000
     9     O       0.027700   0.040808  -0.000000
    10     H      -0.002985   0.026327  -0.000000
    11     H      -0.446666  -0.582294   0.000000
 
 Mode:    32      Frequency (cm-1):     3688.9301     Intensity (km/mol):      258.9945     Irrep: A'
 Index  Atom      ---- Displacements (x/y/z) ----
     1    Pa      -0.000082  -0.000013  -0.000000
     2     O       0.000097   0.000208  -0.000000
     3    Cl      -0.000016  -0.000031  -0.000000
     4    Cl       0.000035  -0.000076  -0.000000
     5    Cl      -0.000067   0.000129   0.000000
     6     H      -0.015351  -0.004078   0.000000
     7     O      -0.031482  -0.049069   0.000000
     8     H       0.528251   0.780674  -0.000000
     9     O      -0.010025   0.017616   0.000000
    10     H       0.170460  -0.279905  -0.000000
    11     H      -0.005633   0.001341   0.000000
 
 Mode:    33      Frequency (cm-1):     3690.2555     Intensity (km/mol):      299.5237     Irrep: A'
 Index  Atom      ---- Displacements (x/y/z) ----
     1    Pa       0.000037  -0.000017   0.000000
     2     O      -0.000032   0.000393  -0.000000
     3    Cl       0.000080   0.000121   0.000000
     4    Cl      -0.000028  -0.000164   0.000000
     5    Cl      -0.000035   0.000053  -0.000000
     6     H      -0.004987  -0.002294  -0.000000
     7     O      -0.011075  -0.017020  -0.000000
     8     H       0.183290   0.271662  -0.000000
     9     O       0.029234  -0.050502  -0.000000
    10     H      -0.489829   0.805339   0.000000
    11     H       0.014820  -0.005828  -0.000000

 Vibrational polarizability tensor (a.u.):
                  X                   Y                   Z
 X            4261.45742           332.04442            -0.00000
 Y             332.04442          6060.90665             0.00000
 Z              -0.00000             0.00000         14859.08801

 Isotropic =      8393.8    atomic units

PES point character: Geometry corresponds to a stationary point on the PES with >1 imaginary frequencies.




 ============================
 Statistical Thermal Analysis  ***  ideal gas assumed  ***
 ============================
  
 Pressure:                  1.000000 atm.
 Temperature:             298.150000 K



 Moments of Inertia [amu*bohr^2] and principal axis
 ==================================================

        2142.4294       5026.4474       7168.8768
 ------------------------------------------------
          -0.9998         -0.0220          0.0000
           0.0220         -0.9998          0.0000
           0.0000          0.0000          1.0000


 The rotational contribution to the molecular entropy includes
 a term, dependent on the symmetry number sigma. The results 
 reported below were computed using sigma = 1, determined from
 the point group symmetry of the input geometry (C(S)). 
 If this is not the correct symmetry, try symmetrizing the molecule before
 running the calculation (note: linear molecules should be aligned along one
 of the Cartesian axes).
 Contributions from frequencies below 20 1/cm are not included in vibrational sums.
 Their contributions, if any, are reported separately.


     Temp                                                        Transl      Rotat     Vibrat     Total
     ----                                                        ------      -----     ------     -----

     298.15   Entropy (cal/mol-K):                               43.759     32.712     38.724    115.196
              Nuclear Internal Energy (kcal/mol):                 0.889      0.889     35.885     37.663
              Constant Volume Heat Capacity (cal/mol-K):          2.981      2.981     26.895     32.856
          (c) Constant Volume Heat Capacity (cal/mol-K):          2.981      2.981     22.359     28.320

       Summary of energy terms
                                                   hartree              eV         kcal/mol           kJ/mol
                                      --------------------     -----------       ----------      -----------
      Energy from Engine:               -2.553200994754231        -69.4761         -1602.16         -6703.43
      Nuclear Internal Energy:           0.060019414233492          1.6332            37.66           157.58
  (c) Nuclear Internal Energy:           0.057753869704845          1.5716            36.24           151.63
      Internal Energy U:                -2.493181580520739        -67.8429         -1564.50         -6545.85
      pV/n = RT:                         0.000944186013486          0.0257             0.59             2.48
      Enthalpy H:                       -2.492237394507253        -67.8172         -1563.90         -6543.37
      -T*S:                             -0.054733173812517         -1.4894           -34.35          -143.70
  (c) -T*S:                             -0.052155724596091         -1.4192           -32.73          -136.93
      Gibbs free energy:                -2.546970568319770        -69.3066         -1598.25         -6687.07
 
 
 
  (c) The properties marked with this symbol have been corrected using 'low vibrational frequency free rotor
      interpolation corrections'. For those terms all positive frequencies are used (also ones below 20 1/cm),
      but the contribution to the partition function of small vibrational frequencies is modified as described
      in the following paper:
      S. Grimme, 'Supramolecular Binding Thermodynamics by Dispersion-Corrected Density Functional Theory'
      (Chem. Eur. J. 2012, 18, 9955-9964)
      Configuration: Dampener Frequency          :   100.000 1/cm
                     Dampener Alpha              :     4.000
                     Averaging Moment of Inertia : 1.000E-44 kg m2

--------------
Atomic charges
--------------
  Index   Atom    Charge
      1     Pa    2.4318
      2      O   -0.6656
      3     Cl   -0.7850
      4     Cl   -0.2886
      5     Cl   -0.7849
      6      H    0.3285
      7      O   -0.5609
      8      H    0.2787
      9      O   -0.5611
     10      H    0.2787
     11      H    0.3284


Dipole moment vector    (Debye):    -0.42288422  -18.82535423   -0.00000000
              magnitude (Debye):    18.83010337


-----------------------
Molecular orbitals info
-----------------------
n orbitals:              266
n spin:                    1

Note: only printing virtual orbitals with
      energy smaller than HOMO + 100. eV

HOMO (eV):              -7.5268
LUMO (eV):              -3.5512
HOMO-LUMO gap (eV):      3.9756

   Index   Energy (eV)    Occupation
     201       86.8551         0.000       
     200       79.7571         0.000       
     199       74.8617         0.000       
     198       73.9275         0.000       
     197       73.4230         0.000       
     196       71.5793         0.000       
     195       70.3429         0.000       
     194       69.7951         0.000       
     193       67.5894         0.000       
     192       62.0005         0.000       
     191       58.2558         0.000       
     190       55.8198         0.000       
     189       55.6285         0.000       
     188       55.3106         0.000       
     187       52.9484         0.000       
     186       52.0373         0.000       
     185       51.9188         0.000       
     184       50.4126         0.000       
     183       49.7004         0.000       
     182       49.1578         0.000       
     181       46.3002         0.000       
     180       46.2629         0.000       
     179       46.0505         0.000       
     178       45.3189         0.000       
     177       44.6560         0.000       
     176       42.7634         0.000       
     175       41.6989         0.000       
     174       40.3626         0.000       
     173       38.4937         0.000       
     172       38.0828         0.000       
     171       37.9832         0.000       
     170       35.9749         0.000       
     169       34.5222         0.000       
     168       33.8362         0.000       
     167       32.1604         0.000       
     166       31.8380         0.000       
     165       31.1232         0.000       
     164       30.7320         0.000       
     163       28.5886         0.000       
     162       27.2257         0.000       
     161       26.4264         0.000       
     160       26.1102         0.000       
     159       25.9200         0.000       
     158       23.7379         0.000       
     157       23.0640         0.000       
     156       22.5480         0.000       
     155       21.7786         0.000       
     154       21.1864         0.000       
     153       21.0946         0.000       
     152       20.8754         0.000       
     151       20.8473         0.000       
     150       18.9500         0.000       
     149       18.3192         0.000       
     148       18.2896         0.000       
     147       17.9609         0.000       
     146       17.3574         0.000       
     145       17.2003         0.000       
     144       16.7248         0.000       
     143       16.4773         0.000       
     142       16.0265         0.000       
     141       15.8627         0.000       
     140       15.1611         0.000       
     139       15.0163         0.000       
     138       14.9560         0.000       
     137       14.5124         0.000       
     136       14.4538         0.000       
     135       14.2965         0.000       
     134       14.2522         0.000       
     133       14.1907         0.000       
     132       14.1216         0.000       
     131       13.8940         0.000       
     130       13.8710         0.000       
     129       13.8472         0.000       
     128       13.5894         0.000       
     127       13.5519         0.000       
     126       13.2986         0.000       
     125       13.2484         0.000       
     124       13.1811         0.000       
     123       13.1217         0.000       
     122       12.6149         0.000       
     121       12.1559         0.000       
     120       11.1987         0.000       
     119       11.0758         0.000       
     118       10.9621         0.000       
     117       10.8747         0.000       
     116       10.5589         0.000       
     115        9.4209         0.000       
     114        9.1183         0.000       
     113        8.6593         0.000       
     112        8.5958         0.000       
     111        7.2367         0.000       
     110        6.1055         0.000       
     109        5.6802         0.000       
     108        5.2642         0.000       
     107        4.7374         0.000       
     106        3.5933         0.000       
     105        2.8903         0.000       
     104        2.6730         0.000       
     103        2.6683         0.000       
     102        2.6274         0.000       
     101        2.6124         0.000       
     100        2.2857         0.000       
      99        1.8191         0.000       
      98        1.1671         0.000       
      97        0.6800         0.000       
      96        0.6224         0.000       
      95        0.0988         0.000       
      94       -1.0163         0.000       
      93       -1.5344         0.000       
      92       -2.3759         0.000       
      91       -2.8350         0.000       
      90       -3.0626         0.000       
      89       -3.3991         0.000       
      88       -3.4299         0.000       
      87       -3.5371         0.000       
      86       -3.5512         0.000 < LUMO
      85       -7.5268         2.000 < HOMO
      84       -7.5284         2.000       
      83       -7.5330         2.000       
      82       -7.5413         2.000       
      81       -7.8464         2.000       
      80       -7.9190         2.000       
      79       -9.3483         2.000       
      78       -9.4370         2.000       
      77       -9.4839         2.000       
      76      -10.4652         2.000       
      75      -10.6154         2.000       
      74      -10.6507         2.000       
      73      -10.7495         2.000       
      72      -10.9979         2.000       
      71      -12.7069         2.000       
      70      -13.9987         2.000       
      69      -15.7271         2.000       
      68      -15.7847         2.000       
      67      -20.3234         2.000       
      66      -20.3289         2.000       
      65      -20.9444         2.000       
      64      -23.2365         2.000       
      63      -25.8684         2.000       
      62      -26.2187         2.000       
      61      -29.0589         2.000       
      60      -29.5950         2.000       
      59      -30.6541         2.000       
      58      -51.0800         2.000       
      57     -100.5176         2.000       
      56     -100.6104         2.000       
      55     -100.6147         2.000       
      54     -100.8144         2.000       
      53     -100.8162         2.000       
      52     -194.2279         2.000       
      51     -194.2280         2.000       
      50     -194.2290         2.000       
      49     -194.2291         2.000       
      48     -194.2758         2.000       
      47     -194.2758         2.000       
      46     -196.3428         2.000       
      45     -196.3451         2.000       
      44     -196.4018         2.000       
      43     -206.9088         2.000       
      42     -207.3582         2.000       
      41     -207.3659         2.000       
      40     -257.0411         2.000       
      39     -257.0412         2.000       
      38     -259.1682         2.000       
      37     -305.4475         2.000       
      36     -360.5070         2.000       
      35     -360.5398         2.000       
      34     -360.5830         2.000       
      33     -360.7582         2.000       
      32     -360.7609         2.000       
      31     -360.9688         2.000       
      30     -360.9719         2.000       
      29     -522.5541         2.000       
      28     -523.2682         2.000       
      27     -523.2698         2.000       
      26     -711.1489         2.000       
      25     -711.3293         2.000       
      24     -711.3739         2.000       
      23     -711.6386         2.000       
      22     -711.6483         2.000       
      21    -1038.3950         2.000       
      20    -1038.8303         2.000       
      19    -1038.9040         2.000       
      18    -1356.0922         2.000       
      17    -2770.2519         2.000       
      16    -2770.2519         2.000       
      15    -2772.3332         2.000       
      14    -3480.8388         2.000       
      13    -3480.9104         2.000       
      12    -3480.9273         2.000       
      11    -3481.0539         2.000       
      10    -3481.0578         2.000       
       9    -4341.5345         2.000       
       8    -4341.7822         2.000       
       7    -4341.8179         2.000       
       6    -5311.0070         2.000       
       5   -17550.2889         2.000       
       4   -17550.3296         2.000       
       3   -17550.3318         2.000       
       2   -21022.1158         2.000       
       1  -112662.7706         2.000       

PES point character cannot be identified reliably because some modes have a significant rigid character.


AMS application finished. Exiting.
NORMAL TERMINATION
     Total cpu time:   33485.93
  Total system time:    1015.63
 Total elapsed time:   34601.26
