

 Parallel Execution: Process Information
 ==============================================================================
 Rank   Node Name                              NodeID   MyNodeRank  NodeMaster
    0   u-0-6.local                               0          0          0
    1   u-0-6.local                               0          1         -1
    2   u-0-6.local                               1          0          1
    3   u-0-6.local                               1          1         -1
    4   u-0-6.local                               2          0          2
    5   u-0-6.local                               2          1         -1
    6   u-0-6.local                               3          0          3
    7   u-0-6.local                               3          1         -1
 ==============================================================================


May use up to 31228MB of RAM as shared memory on node 0
May use up to 31250MB of RAM as shared memory on node 1
May use up to 31250MB of RAM as shared memory on node 2
May use up to 31250MB of RAM as shared memory on node 3

 *******************************************************************************
 *                                                                             *
 *  --------------------------------                                           *
 *   Amsterdam Modeling Suite (AMS)              2024.102                      *
 *  --------------------------------                                           *
 *                                               r122055 2024-06-07            *
 *                                                                             *
 *                                                                             *
 *                              =================                              *
 *                              |               |                              *
 *                              |     A M S     |                              *
 *                              |               |                              *
 *                              =================                              *
 *                                                                             *
 *                                                                             *
 *   Online information and documentation:  https://www.scm.com/support/       *
 *   E-mail:  support@scm.com   info@scm.com                                   *
 *                                                                             *
 *   Scientific publications using AMS results must be properly referenced     *
 *   See the User Manuals (or the web site) for recommended citations          *
 *   The terms and conditions of the End User License Agreement apply to       *
 *   the use of AMS, https://www.scm.com/license-terms/                        *
 *                                                                             *
 **********************  x86_64_linux_intel / intelmpi  ************************
 
 Licensed to: Dr. Val?rie Vallet / Laboratoire PhLAM UMR 8523 / Villeneuve d'Ascq Cedex / FRANCE 2024-02-19 16:59:55
 SCM User ID: u10325
  
 AMS 2024.102  RunTime: Sep16-2024 10:20:12  ShM Nodes: 4  Procs: 8

 AMS jobname: pao_cl6.SO.pbe0.tz2p.sp-gp
 AMS jobid  : 1515200799

 Start   directory: /state/partition2/shaaban/1028490.phlam-s-sakura/
 Results directory: /home/shaaban/ams/PhD/geometries-exafs/pao-chloride/pao_cl6/PBE0/pao_cl6.SO.pbe0.tz2p.sp-gp.results/
 Scratch directory: /state/partition2/shaaban/1028490.phlam-s-sakura/amstmp_pao_cl6.SO.pbe0.tz2p.sp-gp_kid0.1515200799/


 Communication costs MPI_COMM_WORLD:      2.749 usec per message,   0.0110 usec per 8-byte item
 Communication costs for intra-node:      0.489 usec per message,   0.0025 usec per 8-byte item

 RNG seed: -393175009 -1516984672 -903247034 -1714276453 96875370 -2013352855 -897752118 622446819



                      ************************************************************************
                      *  ADF 2024.102  RunTime: Sep16-2024 10:20:14  ShM Nodes: 4  Procs: 8  *
                      ************************************************************************
  

       ****************************
       * SINGLE POINT CALCULATION *
       ****************************
 
--------
Geometry
--------
Formula: Cl6OPa
Atoms
  Index Symbol   x (angstrom)   y (angstrom)   z (angstrom)
      1     Pa    -0.36440237    -0.78362553     0.33925195
      2     Cl     1.25027228     1.30948965    -0.52597728
      3     Cl    -0.73307071    -2.63942803     2.38556802
      4     Cl     1.52465864    -0.27667184     2.32314834
      5     Cl    -2.39398825    -2.52932241    -0.42601348
      6     Cl    -1.17805492    -0.08199454    -2.22533618
      7      O    -1.56072652     0.37098268     1.10221381
      8     Cl     1.36437730    -2.46185610    -0.74679522
 
Total System Charge            -3.00000
Bonding info available!
 
 
----------------
ADF Engine Input
----------------
 
 Basis
 Type TZ2P
 Core None
 End
 XC
 Hybrid PBE0
 End
 Relativity
 Level Spin-Orbit
 End
 NumericalQuality Good
 MBPT
 SigmaFunctionalParametrization W1
 End
 

 Title: *** (NO TITLE) ***

 *** adf ***



 ===========================
 A T T A C H E D   F I L E S
 ===========================
  



 ===============================
 M O D E L   P A R A M E T E R S
 ===============================
  
 DENSITY FUNCTIONAL POTENTIAL (scf)
    Hybrid:                            PBE0                                    == Not Default ==

 SPIN  (restricted / unrestr.)
    Molecule:                          Restricted                               
    Fragments:                         Restricted                               

 OTHER ASPECTS
    Relativistic Corrections:          Spin-Orbit (ZORA,MAPA)                  == Not Default ==

    Nuclear Charge Density Model:      Point Charge Nuclei                      
    Core Treatment:                    Frozen Orbital(s)                        

    Hyperfine or Zeeman Interaction:   ---                                      


 Fragment File(s)
 ----------------
 Pa:
         file : /home/shaaban/ams/PhD/geometries-exafs/pao-chloride/pao_cl6/PBE0/pao_cl6.SO.pbe0.tz2p.sp-gp.results/t21.148527F6.Pa
         jobid: 0
         title: Protactinium (TZ2P, all electron)
 Cl:
         file : /home/shaaban/ams/PhD/geometries-exafs/pao-chloride/pao_cl6/PBE0/pao_cl6.SO.pbe0.tz2p.sp-gp.results/t21.6A5FA99A.Cl
         jobid: 0
         title: Chlorine (TZ2P)
 O:
         file : /home/shaaban/ams/PhD/geometries-exafs/pao-chloride/pao_cl6/PBE0/pao_cl6.SO.pbe0.tz2p.sp-gp.results/t21.2D415687.O
         jobid: 0
         title: Oxygen (TZ2P)



 ===============
 G E O M E T R Y  ***  3D  Molecule  ***
 ===============
  

 ATOMS
 =====                            X Y Z                    CHARGE
                                (Angstrom)             Nucl     +Core       At.Mass
                       --------------------------    ----------------       -------
    1  Pa             -0.3644   -0.7836    0.3393     91.00     91.00      231.0359
    2  Cl              1.2503    1.3095   -0.5260     17.00     17.00       34.9689
    3  Cl             -0.7331   -2.6394    2.3856     17.00     17.00       34.9689
    4  Cl              1.5247   -0.2767    2.3231     17.00     17.00       34.9689
    5  Cl             -2.3940   -2.5293   -0.4260     17.00     17.00       34.9689
    6  Cl             -1.1781   -0.0820   -2.2253     17.00     17.00       34.9689
    7  O              -1.5607    0.3710    1.1022      8.00      8.00       15.9949
    8  Cl              1.3644   -2.4619   -0.7468     17.00     17.00       34.9689


 FRAGMENTS
 =========                                     Atoms in this Fragment     Cart. coord.s (Angstrom)
                                               -------------------------------------------------------
    1  Pa                                                1  Pa          -0.3644   -0.7836    0.3393
    2  Cl                                                2  Cl           1.2503    1.3095   -0.5260
    3  Cl                                                3  Cl          -0.7331   -2.6394    2.3856
    4  Cl                                                4  Cl           1.5247   -0.2767    2.3231
    5  Cl                                                5  Cl          -2.3940   -2.5293   -0.4260
    6  Cl                                                6  Cl          -1.1781   -0.0820   -2.2253
    7  Cl                                                8  Cl           1.3644   -2.4619   -0.7468
    8  O                                                 7  O           -1.5607    0.3710    1.1022


 Interatomic Distance Matrix (Angstrom)
 --------------------------------------

   1)     0.000
   2)     2.782   0.000
   3)     2.787   5.292   0.000
   4)     2.786   3.272   3.269   0.000
   5)     2.784   5.294   3.267   5.290   0.000
   6)     2.781   3.274   5.291   5.294   3.272   0.000
   7)     1.829   3.381   3.376   3.381   3.383   3.380   0.000
   8)     2.643   3.780   3.774   3.772   3.773   3.783   4.472   0.000

 Min. Distance =    1.8293
 Max. Distance =    5.2945



 =====================================
 S Y M M E T R Y ,   E L E C T R O N S
 =====================================
  
 Symmetry: NOSYM

 Double Group Irreducible Representations (spinor symmetry)
 -----------------------------------------------------------
 A1/2

 Symmetry is NOT used when fitting density


 Configuration of Valence Electrons
 ==================================
 ( determined in the SCF procedure )

 Total:   204

 Net Charge: -3 (Nuclei minus Electrons)

 Aufbau principle for MO occupations will be applied through SCF cycle no.     150
 Thereafter, the program will assign electrons to MOs that are spatially
 similar to the occupied MOs in a "reference" cycle ("KeepOrbitals").
 The reference cycle is always the PREVIOUS cycle: it will evolve with
 the SCF procedure.
1
 ***************************************************************************************************



                                      ****************************************
                                      *  B U I L D : (Fragments, Functions)  *
                                      ****************************************
  



 =======
 S F O s  ***  (Symmetrized Fragment Orbitals)  ***
 =======
  
 SFOs are linear combinations of (valence) Fragment Orbitals (FOs), such that the SFOs transform as the
 irreducible representations of the (molecular) symmetry group. Each SFO is therefore characterized by
 an irrep of the molecule and by a few (or only one) generating FOs.
 The SFOs constitute a symmetry-adapted basis for the Fock matrix. The MO eigenvector coefficients in
 this basis provide a direct interpretation of the MOs in terms of Frontier Orbital Theory.

 The SFOs are combined with auxiliary Core Functions (CFs) to ensure orthogonalization on the (frozen)
 Core Orbitals (COs). The Core-orthogonalized SFOs (CSFOs) constitute the true Fock basis.

 The FOs, and hence also the (C)SFOs are combinations of the elementary basis functions (BAS). The basis
 functions that participate in the description of the SFOs depend on the irrep. The indices of the
 involved functions are printed below for each irrep.
 (The complete list of primitive basis functions is printed in another section)

 Total nr. of (C)SFOs (summation over all irreps) :   365

 NOTE: a (C)SFO that is defined as a combination of more than one FO is usually NOT normalized.

 NOTE: the (C)SFOs are single group symmetry adapted orbitals.



                                       === A ===
 Nr. of SFOs :  365
 Cartesian basis functions that participate in this irrep (total number =   417) :
      1     2     3     4     5     6     7     8     9    10
     11    12    13    14    15    16    17    20    23    26
     29    32    35    38    41    44    47    50   157    18
     21    24    27    30    33    36    39    42    45    48
     51   158    19    22    25    28    31    34    37    40
     43    46    49    52   159    53    59    65    71    77
     83    89    95   101    54    60    66    72    78    84
     90    96   102    55    61    67    73    79    85    91
     97   103    56    62    68    74    80    86    92    98
    104    57    63    69    75    81    87    93    99   105
     58    64    70    76    82    88    94   100   106   107
    117   127   137   147   108   118   128   138   148   109
    119   129   139   149   110   120   130   140   150   111
    121   131   141   151   112   122   132   142   152   113
    123   133   143   153   114   124   134   144   154   115
    125   135   145   155   116   126   136   146   156   160
    161   162   163   170   171   172   164   167   173   176
    179   165   168   174   177   180   166   169   175   178
    181   182   183   184   185   186   187   188   189   190
    191   192   193   194   195   196   197   198   199   200
    201   208   209   210   202   205   211   214   217   203
    206   212   215   218   204   207   213   216   219   220
    221   222   223   224   225   226   227   228   229   230
    231   232   233   234   235   236   237   238   239   246
    247   248   240   243   249   252   255   241   244   250
    253   256   242   245   251   254   257   258   259   260
    261   262   263   264   265   266   267   268   269   270
    271   272   273   274   275   276   277   284   285   286
    278   281   287   290   293   279   282   288   291   294
    280   283   289   292   295   296   297   298   299   300
    301   302   303   304   305   306   307   308   309   310
    311   312   313   314   315   322   323   324   316   319
    325   328   331   317   320   326   329   332   318   321
    327   330   333   334   335   336   337   338   339   340
    341   342   343   344   345   346   347   348   349   350
    351   352   353   360   361   362   354   357   363   366
    369   355   358   364   367   370   356   359   365   368
    371   372   373   374   375   376   377   378   379   380
    381   382   383   384   385   386   387   388   389   390
    391   392   393   396   399   394   397   400   395   398
    401   402   403   404   405   406   407   408   409   410
    411   412   413   414   415   416   417

    SFO  (index         Fragment          Generating    Expansion in Fragment Orbitals
  indx  incl.CFs)   Occup   Orb.Energy   FragmentType  Coeff.   Orbital     on Fragment
 --------------------------------------------------------------------------------------
     1       1      2.000   -4141.526 au  Pa            1.00      1 S               1
                        ( -112696.657 eV)
     2       2      2.000    -772.998 au  Pa            1.00      2 S               1
                        (  -21034.347 eV)
     3       3      2.000    -195.328 au  Pa            1.00      3 S               1
                        (   -5315.156 eV)
     4       4      2.000     -49.855 au  Pa            1.00      4 S               1
                        (   -1356.621 eV)
     5       5      2.000     -11.133 au  Pa            1.00      5 S               1
                        (    -302.952 eV)
     6       6      2.000      -1.795 au  Pa            1.00      6 S               1
                        (     -48.841 eV)
     7       7      2.000      -0.175 au  Pa            1.00      7 S               1
                        (      -4.760 eV)
     8       8       --         0.034 au  Pa            1.00      8 S               1
                        (       0.919 eV)
     9       9       --         0.339 au  Pa            1.00      9 S               1
                        (       9.238 eV)
    10      10       --         1.683 au  Pa            1.00     10 S               1
                        (      45.798 eV)
    11      11       --         8.710 au  Pa            1.00     11 S               1
                        (     237.014 eV)
    12      12       --        46.395 au  Pa            1.00     12 S               1
                        (    1262.476 eV)
    13      13       --      1052.783 au  Pa            1.00     13 S               1
                        (   28647.695 eV)
    14      14       --      5424.849 au  Pa            1.00     14 S               1
                        (  147617.662 eV)
    15      15       --     16328.088 au  Pa            1.00     15 S               1
                        (  444309.889 eV)
    16      16       --     46435.709 au  Pa            1.00     16 S               1
                        ( 1263579.939 eV)
    17      17      2.000    -645.265 au  Pa            1.00      1 P:x             1
                        (  -17558.565 eV)
    18      18      2.000    -159.642 au  Pa            1.00      2 P:x             1
                        (   -4344.092 eV)
    19      19      2.000     -38.162 au  Pa            1.00      3 P:x             1
                        (   -1038.447 eV)
    20      20      2.000      -7.518 au  Pa            1.00      4 P:x             1
                        (    -204.571 eV)
    21      21      2.000      -0.902 au  Pa            1.00      5 P:x             1
                        (     -24.533 eV)
    22      22       --        -0.009 au  Pa            1.00      6 P:x             1
                        (      -0.239 eV)
    23      23       --         0.410 au  Pa            1.00      7 P:x             1
                        (      11.153 eV)
    24      24       --         1.860 au  Pa            1.00      8 P:x             1
                        (      50.626 eV)
    25      25       --         7.599 au  Pa            1.00      9 P:x             1
                        (     206.767 eV)
    26      26       --        36.007 au  Pa            1.00     10 P:x             1
                        (     979.808 eV)
    27      27       --       178.692 au  Pa            1.00     11 P:x             1
                        (    4862.446 eV)
    28      28       --      1510.091 au  Pa            1.00     12 P:x             1
                        (   41091.664 eV)
    29      29       --     10784.724 au  Pa            1.00     13 P:x             1
                        (  293467.260 eV)
    30      30      2.000    -645.265 au  Pa            1.00      1 P:y             1
                        (  -17558.565 eV)
    31      31      2.000    -159.642 au  Pa            1.00      2 P:y             1
                        (   -4344.092 eV)
    32      32      2.000     -38.162 au  Pa            1.00      3 P:y             1
                        (   -1038.447 eV)
    33      33      2.000      -7.518 au  Pa            1.00      4 P:y             1
                        (    -204.571 eV)
    34      34      2.000      -0.902 au  Pa            1.00      5 P:y             1
                        (     -24.533 eV)
    35      35       --        -0.009 au  Pa            1.00      6 P:y             1
                        (      -0.239 eV)
    36      36       --         0.410 au  Pa            1.00      7 P:y             1
                        (      11.153 eV)
    37      37       --         1.860 au  Pa            1.00      8 P:y             1
                        (      50.626 eV)
    38      38       --         7.599 au  Pa            1.00      9 P:y             1
                        (     206.767 eV)
    39      39       --        36.007 au  Pa            1.00     10 P:y             1
                        (     979.808 eV)
    40      40       --       178.692 au  Pa            1.00     11 P:y             1
                        (    4862.446 eV)
    41      41       --      1510.091 au  Pa            1.00     12 P:y             1
                        (   41091.664 eV)
    42      42       --     10784.724 au  Pa            1.00     13 P:y             1
                        (  293467.260 eV)
    43      43      2.000    -645.265 au  Pa            1.00      1 P:z             1
                        (  -17558.565 eV)
    44      44      2.000    -159.642 au  Pa            1.00      2 P:z             1
                        (   -4344.092 eV)
    45      45      2.000     -38.162 au  Pa            1.00      3 P:z             1
                        (   -1038.447 eV)
    46      46      2.000      -7.518 au  Pa            1.00      4 P:z             1
                        (    -204.571 eV)
    47      47      2.000      -0.902 au  Pa            1.00      5 P:z             1
                        (     -24.533 eV)
    48      48       --        -0.009 au  Pa            1.00      6 P:z             1
                        (      -0.239 eV)
    49      49       --         0.410 au  Pa            1.00      7 P:z             1
                        (      11.153 eV)
    50      50       --         1.860 au  Pa            1.00      8 P:z             1
                        (      50.626 eV)
    51      51       --         7.599 au  Pa            1.00      9 P:z             1
                        (     206.767 eV)
    52      52       --        36.007 au  Pa            1.00     10 P:z             1
                        (     979.808 eV)
    53      53       --       178.692 au  Pa            1.00     11 P:z             1
                        (    4862.446 eV)
    54      54       --      1510.091 au  Pa            1.00     12 P:z             1
                        (   41091.664 eV)
    55      55       --     10784.724 au  Pa            1.00     13 P:z             1
                        (  293467.260 eV)
    56      56      2.000    -127.956 au  Pa            1.00      1 D:z2            1
                        (   -3481.863 eV)
    57      57      2.000     -26.098 au  Pa            1.00      2 D:z2            1
                        (    -710.150 eV)
    58      58      2.000      -3.589 au  Pa            1.00      3 D:z2            1
                        (     -97.672 eV)
    59      59      0.200      -0.066 au  Pa            1.00      4 D:z2            1
                        (      -1.800 eV)
    60      60       --         0.087 au  Pa            1.00      5 D:z2            1
                        (       2.364 eV)
    61      61       --         0.570 au  Pa            1.00      6 D:z2            1
                        (      15.503 eV)
    62      62       --         3.614 au  Pa            1.00      7 D:z2            1
                        (      98.350 eV)
    63      63       --        25.065 au  Pa            1.00      8 D:z2            1
                        (     682.063 eV)
    64      64       --       205.007 au  Pa            1.00      9 D:z2            1
                        (    5578.517 eV)
    65      65      2.000    -127.956 au  Pa            1.00      1 D:x2-y2         1
                        (   -3481.863 eV)
    66      66      2.000     -26.098 au  Pa            1.00      2 D:x2-y2         1
                        (    -710.150 eV)
    67      67      2.000      -3.589 au  Pa            1.00      3 D:x2-y2         1
                        (     -97.672 eV)
    68      68      0.200      -0.066 au  Pa            1.00      4 D:x2-y2         1
                        (      -1.800 eV)
    69      69       --         0.087 au  Pa            1.00      5 D:x2-y2         1
                        (       2.364 eV)
    70      70       --         0.570 au  Pa            1.00      6 D:x2-y2         1
                        (      15.503 eV)
    71      71       --         3.614 au  Pa            1.00      7 D:x2-y2         1
                        (      98.350 eV)
    72      72       --        25.065 au  Pa            1.00      8 D:x2-y2         1
                        (     682.063 eV)
    73      73       --       205.007 au  Pa            1.00      9 D:x2-y2         1
                        (    5578.517 eV)
    74      74      2.000    -127.956 au  Pa            1.00      1 D:xy            1
                        (   -3481.863 eV)
    75      75      2.000     -26.098 au  Pa            1.00      2 D:xy            1
                        (    -710.150 eV)
    76      76      2.000      -3.589 au  Pa            1.00      3 D:xy            1
                        (     -97.672 eV)
    77      77      0.200      -0.066 au  Pa            1.00      4 D:xy            1
                        (      -1.800 eV)
    78      78       --         0.087 au  Pa            1.00      5 D:xy            1
                        (       2.364 eV)
    79      79       --         0.570 au  Pa            1.00      6 D:xy            1
                        (      15.503 eV)
    80      80       --         3.614 au  Pa            1.00      7 D:xy            1
                        (      98.350 eV)
    81      81       --        25.065 au  Pa            1.00      8 D:xy            1
                        (     682.063 eV)
    82      82       --       205.007 au  Pa            1.00      9 D:xy            1
                        (    5578.517 eV)
    83      83      2.000    -127.956 au  Pa            1.00      1 D:xz            1
                        (   -3481.863 eV)
    84      84      2.000     -26.098 au  Pa            1.00      2 D:xz            1
                        (    -710.150 eV)
    85      85      2.000      -3.589 au  Pa            1.00      3 D:xz            1
                        (     -97.672 eV)
    86      86      0.200      -0.066 au  Pa            1.00      4 D:xz            1
                        (      -1.800 eV)
    87      87       --         0.087 au  Pa            1.00      5 D:xz            1
                        (       2.364 eV)
    88      88       --         0.570 au  Pa            1.00      6 D:xz            1
                        (      15.503 eV)
    89      89       --         3.614 au  Pa            1.00      7 D:xz            1
                        (      98.350 eV)
    90      90       --        25.065 au  Pa            1.00      8 D:xz            1
                        (     682.063 eV)
    91      91       --       205.007 au  Pa            1.00      9 D:xz            1
                        (    5578.517 eV)
    92      92      2.000    -127.956 au  Pa            1.00      1 D:yz            1
                        (   -3481.863 eV)
    93      93      2.000     -26.098 au  Pa            1.00      2 D:yz            1
                        (    -710.150 eV)
    94      94      2.000      -3.589 au  Pa            1.00      3 D:yz            1
                        (     -97.672 eV)
    95      95      0.200      -0.066 au  Pa            1.00      4 D:yz            1
                        (      -1.800 eV)
    96      96       --         0.087 au  Pa            1.00      5 D:yz            1
                        (       2.364 eV)
    97      97       --         0.570 au  Pa            1.00      6 D:yz            1
                        (      15.503 eV)
    98      98       --         3.614 au  Pa            1.00      7 D:yz            1
                        (      98.350 eV)
    99      99       --        25.065 au  Pa            1.00      8 D:yz            1
                        (     682.063 eV)
   100     100       --       205.007 au  Pa            1.00      9 D:yz            1
                        (    5578.517 eV)
   101     101      2.000     -13.166 au  Pa            1.00      1 F:z3            1
                        (    -358.254 eV)
   102     102      0.286      -0.038 au  Pa            1.00      2 F:z3            1
                        (      -1.040 eV)
   103     103       --         0.423 au  Pa            1.00      3 F:z3            1
                        (      11.518 eV)
   104     104       --         2.565 au  Pa            1.00      4 F:z3            1
                        (      69.799 eV)
   105     105       --        21.684 au  Pa            1.00      5 F:z3            1
                        (     590.042 eV)
   106     106      2.000     -13.166 au  Pa            1.00      1 F:z             1
                        (    -358.254 eV)
   107     107      0.286      -0.038 au  Pa            1.00      2 F:z             1
                        (      -1.040 eV)
   108     108       --         0.423 au  Pa            1.00      3 F:z             1
                        (      11.518 eV)
   109     109       --         2.565 au  Pa            1.00      4 F:z             1
                        (      69.799 eV)
   110     110       --        21.684 au  Pa            1.00      5 F:z             1
                        (     590.042 eV)
   111     111      2.000     -13.166 au  Pa            1.00      1 F:xyz           1
                        (    -358.254 eV)
   112     112      0.286      -0.038 au  Pa            1.00      2 F:xyz           1
                        (      -1.040 eV)
   113     113       --         0.423 au  Pa            1.00      3 F:xyz           1
                        (      11.518 eV)
   114     114       --         2.565 au  Pa            1.00      4 F:xyz           1
                        (      69.799 eV)
   115     115       --        21.684 au  Pa            1.00      5 F:xyz           1
                        (     590.042 eV)
   116     116      2.000     -13.166 au  Pa            1.00      1 F:z2x           1
                        (    -358.254 eV)
   117     117      0.286      -0.038 au  Pa            1.00      2 F:z2x           1
                        (      -1.040 eV)
   118     118       --         0.423 au  Pa            1.00      3 F:z2x           1
                        (      11.518 eV)
   119     119       --         2.565 au  Pa            1.00      4 F:z2x           1
                        (      69.799 eV)
   120     120       --        21.684 au  Pa            1.00      5 F:z2x           1
                        (     590.042 eV)
   121     121      2.000     -13.166 au  Pa            1.00      1 F:z2y           1
                        (    -358.254 eV)
   122     122      0.286      -0.038 au  Pa            1.00      2 F:z2y           1
                        (      -1.040 eV)
   123     123       --         0.423 au  Pa            1.00      3 F:z2y           1
                        (      11.518 eV)
   124     124       --         2.565 au  Pa            1.00      4 F:z2y           1
                        (      69.799 eV)
   125     125       --        21.684 au  Pa            1.00      5 F:z2y           1
                        (     590.042 eV)
   126     126      2.000     -13.166 au  Pa            1.00      1 F:x             1
                        (    -358.254 eV)
   127     127      0.286      -0.038 au  Pa            1.00      2 F:x             1
                        (      -1.040 eV)
   128     128       --         0.423 au  Pa            1.00      3 F:x             1
                        (      11.518 eV)
   129     129       --         2.565 au  Pa            1.00      4 F:x             1
                        (      69.799 eV)
   130     130       --        21.684 au  Pa            1.00      5 F:x             1
                        (     590.042 eV)
   131     131      2.000     -13.166 au  Pa            1.00      1 F:y             1
                        (    -358.254 eV)
   132     132      0.286      -0.038 au  Pa            1.00      2 F:y             1
                        (      -1.040 eV)
   133     133       --         0.423 au  Pa            1.00      3 F:y             1
                        (      11.518 eV)
   134     134       --         2.565 au  Pa            1.00      4 F:y             1
                        (      69.799 eV)
   135     135       --        21.684 au  Pa            1.00      5 F:y             1
                        (     590.042 eV)
   136     136      2.000    -102.119 au  Cl            1.00      1 S               2
                        (   -2778.789 eV)
   137     137      2.000      -9.646 au  Cl            1.00      2 S               2
                        (    -262.471 eV)
   138     138      2.000      -0.854 au  Cl            1.00      3 S               2
                        (     -23.229 eV)
   139     139       --         0.235 au  Cl            1.00      4 S               2
                        (       6.405 eV)
   140     140       --         2.083 au  Cl            1.00      5 S               2
                        (      56.675 eV)
   141     141       --        12.853 au  Cl            1.00      6 S               2
                        (     349.740 eV)
   142     142       --       206.451 au  Cl            1.00      7 S               2
                        (    5617.823 eV)
   143     143      2.000      -7.311 au  Cl            1.00      1 P:x             2
                        (    -198.932 eV)
   144     144      1.667      -0.356 au  Cl            1.00      2 P:x             2
                        (      -9.674 eV)
   145     145       --         0.265 au  Cl            1.00      3 P:x             2
                        (       7.199 eV)
   146     146       --         2.208 au  Cl            1.00      4 P:x             2
                        (      60.081 eV)
   147     147       --        19.015 au  Cl            1.00      5 P:x             2
                        (     517.415 eV)
   148     148      2.000      -7.311 au  Cl            1.00      1 P:y             2
                        (    -198.932 eV)
   149     149      1.667      -0.356 au  Cl            1.00      2 P:y             2
                        (      -9.674 eV)
   150     150       --         0.265 au  Cl            1.00      3 P:y             2
                        (       7.199 eV)
   151     151       --         2.208 au  Cl            1.00      4 P:y             2
                        (      60.081 eV)
   152     152       --        19.015 au  Cl            1.00      5 P:y             2
                        (     517.415 eV)
   153     153      2.000      -7.311 au  Cl            1.00      1 P:z             2
                        (    -198.932 eV)
   154     154      1.667      -0.356 au  Cl            1.00      2 P:z             2
                        (      -9.674 eV)
   155     155       --         0.265 au  Cl            1.00      3 P:z             2
                        (       7.199 eV)
   156     156       --         2.208 au  Cl            1.00      4 P:z             2
                        (      60.081 eV)
   157     157       --        19.015 au  Cl            1.00      5 P:z             2
                        (     517.415 eV)
   158     158       --         0.444 au  Cl            1.00      1 D:z2            2
                        (      12.084 eV)
   159     159       --         0.444 au  Cl            1.00      1 D:x2-y2         2
                        (      12.084 eV)
   160     160       --         0.444 au  Cl            1.00      1 D:xy            2
                        (      12.084 eV)
   161     161       --         0.444 au  Cl            1.00      1 D:xz            2
                        (      12.084 eV)
   162     162       --         0.444 au  Cl            1.00      1 D:yz            2
                        (      12.084 eV)
   163     163       --         1.251 au  Cl            1.00      1 F:z3            2
                        (      34.044 eV)
   164     164       --         1.251 au  Cl            1.00      1 F:z             2
                        (      34.044 eV)
   165     165       --         1.251 au  Cl            1.00      1 F:xyz           2
                        (      34.044 eV)
   166     166       --         1.251 au  Cl            1.00      1 F:z2x           2
                        (      34.044 eV)
   167     167       --         1.251 au  Cl            1.00      1 F:z2y           2
                        (      34.044 eV)
   168     168       --         1.251 au  Cl            1.00      1 F:x             2
                        (      34.044 eV)
   169     169       --         1.251 au  Cl            1.00      1 F:y             2
                        (      34.044 eV)
   170     170      2.000    -102.119 au  Cl            1.00      1 S               3
                        (   -2778.789 eV)
   171     171      2.000      -9.646 au  Cl            1.00      2 S               3
                        (    -262.471 eV)
   172     172      2.000      -0.854 au  Cl            1.00      3 S               3
                        (     -23.229 eV)
   173     173       --         0.235 au  Cl            1.00      4 S               3
                        (       6.405 eV)
   174     174       --         2.083 au  Cl            1.00      5 S               3
                        (      56.675 eV)
   175     175       --        12.853 au  Cl            1.00      6 S               3
                        (     349.740 eV)
   176     176       --       206.451 au  Cl            1.00      7 S               3
                        (    5617.823 eV)
   177     177      2.000      -7.311 au  Cl            1.00      1 P:x             3
                        (    -198.932 eV)
   178     178      1.667      -0.356 au  Cl            1.00      2 P:x             3
                        (      -9.674 eV)
   179     179       --         0.265 au  Cl            1.00      3 P:x             3
                        (       7.199 eV)
   180     180       --         2.208 au  Cl            1.00      4 P:x             3
                        (      60.081 eV)
   181     181       --        19.015 au  Cl            1.00      5 P:x             3
                        (     517.415 eV)
   182     182      2.000      -7.311 au  Cl            1.00      1 P:y             3
                        (    -198.932 eV)
   183     183      1.667      -0.356 au  Cl            1.00      2 P:y             3
                        (      -9.674 eV)
   184     184       --         0.265 au  Cl            1.00      3 P:y             3
                        (       7.199 eV)
   185     185       --         2.208 au  Cl            1.00      4 P:y             3
                        (      60.081 eV)
   186     186       --        19.015 au  Cl            1.00      5 P:y             3
                        (     517.415 eV)
   187     187      2.000      -7.311 au  Cl            1.00      1 P:z             3
                        (    -198.932 eV)
   188     188      1.667      -0.356 au  Cl            1.00      2 P:z             3
                        (      -9.674 eV)
   189     189       --         0.265 au  Cl            1.00      3 P:z             3
                        (       7.199 eV)
   190     190       --         2.208 au  Cl            1.00      4 P:z             3
                        (      60.081 eV)
   191     191       --        19.015 au  Cl            1.00      5 P:z             3
                        (     517.415 eV)
   192     192       --         0.444 au  Cl            1.00      1 D:z2            3
                        (      12.084 eV)
   193     193       --         0.444 au  Cl            1.00      1 D:x2-y2         3
                        (      12.084 eV)
   194     194       --         0.444 au  Cl            1.00      1 D:xy            3
                        (      12.084 eV)
   195     195       --         0.444 au  Cl            1.00      1 D:xz            3
                        (      12.084 eV)
   196     196       --         0.444 au  Cl            1.00      1 D:yz            3
                        (      12.084 eV)
   197     197       --         1.251 au  Cl            1.00      1 F:z3            3
                        (      34.044 eV)
   198     198       --         1.251 au  Cl            1.00      1 F:z             3
                        (      34.044 eV)
   199     199       --         1.251 au  Cl            1.00      1 F:xyz           3
                        (      34.044 eV)
   200     200       --         1.251 au  Cl            1.00      1 F:z2x           3
                        (      34.044 eV)
   201     201       --         1.251 au  Cl            1.00      1 F:z2y           3
                        (      34.044 eV)
   202     202       --         1.251 au  Cl            1.00      1 F:x             3
                        (      34.044 eV)
   203     203       --         1.251 au  Cl            1.00      1 F:y             3
                        (      34.044 eV)
   204     204      2.000    -102.119 au  Cl            1.00      1 S               4
                        (   -2778.789 eV)
   205     205      2.000      -9.646 au  Cl            1.00      2 S               4
                        (    -262.471 eV)
   206     206      2.000      -0.854 au  Cl            1.00      3 S               4
                        (     -23.229 eV)
   207     207       --         0.235 au  Cl            1.00      4 S               4
                        (       6.405 eV)
   208     208       --         2.083 au  Cl            1.00      5 S               4
                        (      56.675 eV)
   209     209       --        12.853 au  Cl            1.00      6 S               4
                        (     349.740 eV)
   210     210       --       206.451 au  Cl            1.00      7 S               4
                        (    5617.823 eV)
   211     211      2.000      -7.311 au  Cl            1.00      1 P:x             4
                        (    -198.932 eV)
   212     212      1.667      -0.356 au  Cl            1.00      2 P:x             4
                        (      -9.674 eV)
   213     213       --         0.265 au  Cl            1.00      3 P:x             4
                        (       7.199 eV)
   214     214       --         2.208 au  Cl            1.00      4 P:x             4
                        (      60.081 eV)
   215     215       --        19.015 au  Cl            1.00      5 P:x             4
                        (     517.415 eV)
   216     216      2.000      -7.311 au  Cl            1.00      1 P:y             4
                        (    -198.932 eV)
   217     217      1.667      -0.356 au  Cl            1.00      2 P:y             4
                        (      -9.674 eV)
   218     218       --         0.265 au  Cl            1.00      3 P:y             4
                        (       7.199 eV)
   219     219       --         2.208 au  Cl            1.00      4 P:y             4
                        (      60.081 eV)
   220     220       --        19.015 au  Cl            1.00      5 P:y             4
                        (     517.415 eV)
   221     221      2.000      -7.311 au  Cl            1.00      1 P:z             4
                        (    -198.932 eV)
   222     222      1.667      -0.356 au  Cl            1.00      2 P:z             4
                        (      -9.674 eV)
   223     223       --         0.265 au  Cl            1.00      3 P:z             4
                        (       7.199 eV)
   224     224       --         2.208 au  Cl            1.00      4 P:z             4
                        (      60.081 eV)
   225     225       --        19.015 au  Cl            1.00      5 P:z             4
                        (     517.415 eV)
   226     226       --         0.444 au  Cl            1.00      1 D:z2            4
                        (      12.084 eV)
   227     227       --         0.444 au  Cl            1.00      1 D:x2-y2         4
                        (      12.084 eV)
   228     228       --         0.444 au  Cl            1.00      1 D:xy            4
                        (      12.084 eV)
   229     229       --         0.444 au  Cl            1.00      1 D:xz            4
                        (      12.084 eV)
   230     230       --         0.444 au  Cl            1.00      1 D:yz            4
                        (      12.084 eV)
   231     231       --         1.251 au  Cl            1.00      1 F:z3            4
                        (      34.044 eV)
   232     232       --         1.251 au  Cl            1.00      1 F:z             4
                        (      34.044 eV)
   233     233       --         1.251 au  Cl            1.00      1 F:xyz           4
                        (      34.044 eV)
   234     234       --         1.251 au  Cl            1.00      1 F:z2x           4
                        (      34.044 eV)
   235     235       --         1.251 au  Cl            1.00      1 F:z2y           4
                        (      34.044 eV)
   236     236       --         1.251 au  Cl            1.00      1 F:x             4
                        (      34.044 eV)
   237     237       --         1.251 au  Cl            1.00      1 F:y             4
                        (      34.044 eV)
   238     238      2.000    -102.119 au  Cl            1.00      1 S               5
                        (   -2778.789 eV)
   239     239      2.000      -9.646 au  Cl            1.00      2 S               5
                        (    -262.471 eV)
   240     240      2.000      -0.854 au  Cl            1.00      3 S               5
                        (     -23.229 eV)
   241     241       --         0.235 au  Cl            1.00      4 S               5
                        (       6.405 eV)
   242     242       --         2.083 au  Cl            1.00      5 S               5
                        (      56.675 eV)
   243     243       --        12.853 au  Cl            1.00      6 S               5
                        (     349.740 eV)
   244     244       --       206.451 au  Cl            1.00      7 S               5
                        (    5617.823 eV)
   245     245      2.000      -7.311 au  Cl            1.00      1 P:x             5
                        (    -198.932 eV)
   246     246      1.667      -0.356 au  Cl            1.00      2 P:x             5
                        (      -9.674 eV)
   247     247       --         0.265 au  Cl            1.00      3 P:x             5
                        (       7.199 eV)
   248     248       --         2.208 au  Cl            1.00      4 P:x             5
                        (      60.081 eV)
   249     249       --        19.015 au  Cl            1.00      5 P:x             5
                        (     517.415 eV)
   250     250      2.000      -7.311 au  Cl            1.00      1 P:y             5
                        (    -198.932 eV)
   251     251      1.667      -0.356 au  Cl            1.00      2 P:y             5
                        (      -9.674 eV)
   252     252       --         0.265 au  Cl            1.00      3 P:y             5
                        (       7.199 eV)
   253     253       --         2.208 au  Cl            1.00      4 P:y             5
                        (      60.081 eV)
   254     254       --        19.015 au  Cl            1.00      5 P:y             5
                        (     517.415 eV)
   255     255      2.000      -7.311 au  Cl            1.00      1 P:z             5
                        (    -198.932 eV)
   256     256      1.667      -0.356 au  Cl            1.00      2 P:z             5
                        (      -9.674 eV)
   257     257       --         0.265 au  Cl            1.00      3 P:z             5
                        (       7.199 eV)
   258     258       --         2.208 au  Cl            1.00      4 P:z             5
                        (      60.081 eV)
   259     259       --        19.015 au  Cl            1.00      5 P:z             5
                        (     517.415 eV)
   260     260       --         0.444 au  Cl            1.00      1 D:z2            5
                        (      12.084 eV)
   261     261       --         0.444 au  Cl            1.00      1 D:x2-y2         5
                        (      12.084 eV)
   262     262       --         0.444 au  Cl            1.00      1 D:xy            5
                        (      12.084 eV)
   263     263       --         0.444 au  Cl            1.00      1 D:xz            5
                        (      12.084 eV)
   264     264       --         0.444 au  Cl            1.00      1 D:yz            5
                        (      12.084 eV)
   265     265       --         1.251 au  Cl            1.00      1 F:z3            5
                        (      34.044 eV)
   266     266       --         1.251 au  Cl            1.00      1 F:z             5
                        (      34.044 eV)
   267     267       --         1.251 au  Cl            1.00      1 F:xyz           5
                        (      34.044 eV)
   268     268       --         1.251 au  Cl            1.00      1 F:z2x           5
                        (      34.044 eV)
   269     269       --         1.251 au  Cl            1.00      1 F:z2y           5
                        (      34.044 eV)
   270     270       --         1.251 au  Cl            1.00      1 F:x             5
                        (      34.044 eV)
   271     271       --         1.251 au  Cl            1.00      1 F:y             5
                        (      34.044 eV)
   272     272      2.000    -102.119 au  Cl            1.00      1 S               6
                        (   -2778.789 eV)
   273     273      2.000      -9.646 au  Cl            1.00      2 S               6
                        (    -262.471 eV)
   274     274      2.000      -0.854 au  Cl            1.00      3 S               6
                        (     -23.229 eV)
   275     275       --         0.235 au  Cl            1.00      4 S               6
                        (       6.405 eV)
   276     276       --         2.083 au  Cl            1.00      5 S               6
                        (      56.675 eV)
   277     277       --        12.853 au  Cl            1.00      6 S               6
                        (     349.740 eV)
   278     278       --       206.451 au  Cl            1.00      7 S               6
                        (    5617.823 eV)
   279     279      2.000      -7.311 au  Cl            1.00      1 P:x             6
                        (    -198.932 eV)
   280     280      1.667      -0.356 au  Cl            1.00      2 P:x             6
                        (      -9.674 eV)
   281     281       --         0.265 au  Cl            1.00      3 P:x             6
                        (       7.199 eV)
   282     282       --         2.208 au  Cl            1.00      4 P:x             6
                        (      60.081 eV)
   283     283       --        19.015 au  Cl            1.00      5 P:x             6
                        (     517.415 eV)
   284     284      2.000      -7.311 au  Cl            1.00      1 P:y             6
                        (    -198.932 eV)
   285     285      1.667      -0.356 au  Cl            1.00      2 P:y             6
                        (      -9.674 eV)
   286     286       --         0.265 au  Cl            1.00      3 P:y             6
                        (       7.199 eV)
   287     287       --         2.208 au  Cl            1.00      4 P:y             6
                        (      60.081 eV)
   288     288       --        19.015 au  Cl            1.00      5 P:y             6
                        (     517.415 eV)
   289     289      2.000      -7.311 au  Cl            1.00      1 P:z             6
                        (    -198.932 eV)
   290     290      1.667      -0.356 au  Cl            1.00      2 P:z             6
                        (      -9.674 eV)
   291     291       --         0.265 au  Cl            1.00      3 P:z             6
                        (       7.199 eV)
   292     292       --         2.208 au  Cl            1.00      4 P:z             6
                        (      60.081 eV)
   293     293       --        19.015 au  Cl            1.00      5 P:z             6
                        (     517.415 eV)
   294     294       --         0.444 au  Cl            1.00      1 D:z2            6
                        (      12.084 eV)
   295     295       --         0.444 au  Cl            1.00      1 D:x2-y2         6
                        (      12.084 eV)
   296     296       --         0.444 au  Cl            1.00      1 D:xy            6
                        (      12.084 eV)
   297     297       --         0.444 au  Cl            1.00      1 D:xz            6
                        (      12.084 eV)
   298     298       --         0.444 au  Cl            1.00      1 D:yz            6
                        (      12.084 eV)
   299     299       --         1.251 au  Cl            1.00      1 F:z3            6
                        (      34.044 eV)
   300     300       --         1.251 au  Cl            1.00      1 F:z             6
                        (      34.044 eV)
   301     301       --         1.251 au  Cl            1.00      1 F:xyz           6
                        (      34.044 eV)
   302     302       --         1.251 au  Cl            1.00      1 F:z2x           6
                        (      34.044 eV)
   303     303       --         1.251 au  Cl            1.00      1 F:z2y           6
                        (      34.044 eV)
   304     304       --         1.251 au  Cl            1.00      1 F:x             6
                        (      34.044 eV)
   305     305       --         1.251 au  Cl            1.00      1 F:y             6
                        (      34.044 eV)
   306     306      2.000    -102.119 au  Cl            1.00      1 S               7
                        (   -2778.789 eV)
   307     307      2.000      -9.646 au  Cl            1.00      2 S               7
                        (    -262.471 eV)
   308     308      2.000      -0.854 au  Cl            1.00      3 S               7
                        (     -23.229 eV)
   309     309       --         0.235 au  Cl            1.00      4 S               7
                        (       6.405 eV)
   310     310       --         2.083 au  Cl            1.00      5 S               7
                        (      56.675 eV)
   311     311       --        12.853 au  Cl            1.00      6 S               7
                        (     349.740 eV)
   312     312       --       206.451 au  Cl            1.00      7 S               7
                        (    5617.823 eV)
   313     313      2.000      -7.311 au  Cl            1.00      1 P:x             7
                        (    -198.932 eV)
   314     314      1.667      -0.356 au  Cl            1.00      2 P:x             7
                        (      -9.674 eV)
   315     315       --         0.265 au  Cl            1.00      3 P:x             7
                        (       7.199 eV)
   316     316       --         2.208 au  Cl            1.00      4 P:x             7
                        (      60.081 eV)
   317     317       --        19.015 au  Cl            1.00      5 P:x             7
                        (     517.415 eV)
   318     318      2.000      -7.311 au  Cl            1.00      1 P:y             7
                        (    -198.932 eV)
   319     319      1.667      -0.356 au  Cl            1.00      2 P:y             7
                        (      -9.674 eV)
   320     320       --         0.265 au  Cl            1.00      3 P:y             7
                        (       7.199 eV)
   321     321       --         2.208 au  Cl            1.00      4 P:y             7
                        (      60.081 eV)
   322     322       --        19.015 au  Cl            1.00      5 P:y             7
                        (     517.415 eV)
   323     323      2.000      -7.311 au  Cl            1.00      1 P:z             7
                        (    -198.932 eV)
   324     324      1.667      -0.356 au  Cl            1.00      2 P:z             7
                        (      -9.674 eV)
   325     325       --         0.265 au  Cl            1.00      3 P:z             7
                        (       7.199 eV)
   326     326       --         2.208 au  Cl            1.00      4 P:z             7
                        (      60.081 eV)
   327     327       --        19.015 au  Cl            1.00      5 P:z             7
                        (     517.415 eV)
   328     328       --         0.444 au  Cl            1.00      1 D:z2            7
                        (      12.084 eV)
   329     329       --         0.444 au  Cl            1.00      1 D:x2-y2         7
                        (      12.084 eV)
   330     330       --         0.444 au  Cl            1.00      1 D:xy            7
                        (      12.084 eV)
   331     331       --         0.444 au  Cl            1.00      1 D:xz            7
                        (      12.084 eV)
   332     332       --         0.444 au  Cl            1.00      1 D:yz            7
                        (      12.084 eV)
   333     333       --         1.251 au  Cl            1.00      1 F:z3            7
                        (      34.044 eV)
   334     334       --         1.251 au  Cl            1.00      1 F:z             7
                        (      34.044 eV)
   335     335       --         1.251 au  Cl            1.00      1 F:xyz           7
                        (      34.044 eV)
   336     336       --         1.251 au  Cl            1.00      1 F:z2x           7
                        (      34.044 eV)
   337     337       --         1.251 au  Cl            1.00      1 F:z2y           7
                        (      34.044 eV)
   338     338       --         1.251 au  Cl            1.00      1 F:x             7
                        (      34.044 eV)
   339     339       --         1.251 au  Cl            1.00      1 F:y             7
                        (      34.044 eV)
   340     340      2.000     -19.396 au  O             1.00      1 S               8
                        (    -527.802 eV)
   341     341      2.000      -0.999 au  O             1.00      2 S               8
                        (     -27.198 eV)
   342     342       --         0.856 au  O             1.00      3 S               8
                        (      23.286 eV)
   343     343       --        13.669 au  O             1.00      4 S               8
                        (     371.949 eV)
   344     344       --       122.368 au  O             1.00      5 S               8
                        (    3329.795 eV)
   345     345      1.333      -0.366 au  O             1.00      1 P:x             8
                        (      -9.955 eV)
   346     346       --         0.397 au  O             1.00      2 P:x             8
                        (      10.811 eV)
   347     347       --         3.979 au  O             1.00      3 P:x             8
                        (     108.277 eV)
   348     348      1.333      -0.366 au  O             1.00      1 P:y             8
                        (      -9.955 eV)
   349     349       --         0.397 au  O             1.00      2 P:y             8
                        (      10.811 eV)
   350     350       --         3.979 au  O             1.00      3 P:y             8
                        (     108.277 eV)
   351     351      1.333      -0.366 au  O             1.00      1 P:z             8
                        (      -9.955 eV)
   352     352       --         0.397 au  O             1.00      2 P:z             8
                        (      10.811 eV)
   353     353       --         3.979 au  O             1.00      3 P:z             8
                        (     108.277 eV)
   354     354       --         1.128 au  O             1.00      1 D:z2            8
                        (      30.706 eV)
   355     355       --         1.128 au  O             1.00      1 D:x2-y2         8
                        (      30.706 eV)
   356     356       --         1.128 au  O             1.00      1 D:xy            8
                        (      30.706 eV)
   357     357       --         1.128 au  O             1.00      1 D:xz            8
                        (      30.706 eV)
   358     358       --         1.128 au  O             1.00      1 D:yz            8
                        (      30.706 eV)
   359     359       --         3.446 au  O             1.00      1 F:z3            8
                        (      93.771 eV)
   360     360       --         3.446 au  O             1.00      1 F:z             8
                        (      93.771 eV)
   361     361       --         3.446 au  O             1.00      1 F:xyz           8
                        (      93.771 eV)
   362     362       --         3.446 au  O             1.00      1 F:z2x           8
                        (      93.771 eV)
   363     363       --         3.446 au  O             1.00      1 F:z2y           8
                        (      93.771 eV)
   364     364       --         3.446 au  O             1.00      1 F:x             8
                        (      93.771 eV)
   365     365       --         3.446 au  O             1.00      1 F:y             8
                        (      93.771 eV)



 ================================
 (Slater-type)  F U N C T I O N S  ***  (Basis and Fit)  ***
 ================================
  

 Atom Type    1  (Pa)
 ==============

 Valence Basis Sets:  43
 -----------------------
   1 S 1028.000000
   1 S  240.000000
   1 S  107.000000
   2 S  131.500000
   2 S   46.500000
   3 S   59.100000
   3 S   25.450000
   4 S   15.550000
   4 S   11.050000
   5 S   10.200000
   5 S    7.100000
   6 S    4.950000
   6 S    3.250000
   7 S    2.350000
   7 S    1.550000
   7 S    1.020000
   2 P  240.000000
   2 P   84.000000
   2 P   43.600000
   3 P   24.750000
   3 P   17.850000
   4 P   17.650000
   4 P   12.100000
   5 P    8.500000
   5 P    5.900000
   6 P    4.400000
   6 P    3.000000
   6 P    2.100000
   3 D   33.750000
   3 D   21.750000
   4 D   15.300000
   4 D   10.450000
   5 D    7.150000
   5 D    4.600000
   6 D    3.000000
   6 D    1.700000
   6 D    0.980000
   4 F   17.100000
   4 F    9.350000
   5 F    5.850000
   5 F    3.150000
   5 F    1.550000
   7 P    1.550000

 Charge Fitting Sets (for the computation of the Coulomb Potential):  87
 -----------------------------------------------------------------------
   1 S 2056.000000
   1 S 1549.519000
   1 S 1167.806000
   1 S  880.126000
   1 S  663.313000
   1 S  499.911000
   1 S  376.761000
   1 S  283.949000
   1 S  214.000000
   1 S  127.280000
   2 S  140.220000
   2 S   93.850000
   3 S   92.230000
   3 S   65.710000
   4 S   61.900000
   4 S   45.910000
   5 S   42.420000
   5 S   32.370000
   6 S   29.610000
   6 S   23.090000
   7 S   21.000000
   7 S   16.670000
   8 S   15.120000
   8 S   12.170000
   9 S   11.020000
   9 S    8.970000
  10 S    8.120000
  10 S    6.680000
  11 S    6.050000
  11 S    5.020000
  12 S    4.550000
  12 S    3.800000
  12 S    3.180000
  13 S    2.880000
  13 S    2.420000
  13 S    2.040000
   2 P  150.600000
   3 P  125.870000
   4 P  103.260000
   5 P   84.350000
   6 P   68.960000
   7 P   56.560000
   7 P   40.600000
   8 P   33.430000
   8 P   24.490000
   9 P   20.250000
   9 P   15.090000
  10 P   12.530000
  10 P    9.470000
  11 P    7.900000
  11 P    6.040000
  12 P    5.060000
  12 P    3.910000
  13 P    3.290000
  13 P    2.570000
   3 D  128.750000
   4 D   91.090000
   5 D   65.210000
   6 D   47.270000
   7 D   34.690000
   8 D   25.740000
   9 D   19.290000
   9 D   13.060000
  10 D    9.880000
  10 D    6.820000
  11 D    5.210000
  11 D    3.650000
  12 D    2.810000
  12 D    2.000000
   4 F  116.350000
   5 F   72.360000
   6 F   46.140000
   7 F   30.070000
   8 F   19.970000
   9 F   13.480000
  10 F    9.240000
  10 F    5.790000
  11 F    4.020000
  11 F    2.570000
   5 G   52.950000
   6 G   31.380000
   7 G   19.110000
   8 G   11.920000
   9 G    7.580000
  10 G    4.910000
  11 G    3.230000
  11 G    1.960000

 Atom Type    2  (Cl)
 ==============

 Valence Basis Sets:  14
 -----------------------
   1 S   20.300000
   1 S   15.250000
   2 S    6.250000
   2 S    4.450000
   2 P    8.850000
   2 P    5.050000
   3 S    3.450000
   3 S    2.300000
   3 S    1.600000
   3 P    3.350000
   3 P    2.050000
   3 P    1.200000
   3 D    2.000000
   4 F    2.000000

 Charge Fitting Sets (for the computation of the Coulomb Potential):  30
 -----------------------------------------------------------------------
   1 S   40.600000
   1 S   24.830000
   2 S   28.080000
   2 S   19.200000
   3 S   19.250000
   3 S   13.970000
   3 S   10.130000
   4 S    9.710000
   4 S    7.320000
   4 S    5.510000
   5 S    5.170000
   5 S    4.000000
   5 S    3.100000
   5 S    2.400000
   2 P   29.150000
   3 P   21.740000
   4 P   16.160000
   4 P    9.600000
   5 P    7.180000
   5 P    4.480000
   5 P    2.800000
   3 D   21.950000
   4 D   15.750000
   4 D    9.040000
   5 D    6.550000
   5 D    3.960000
   5 D    2.400000
   4 F    5.000000
   4 F    3.000000
   5 G    3.500000

 Atom Type    3  (O)
 ==============

 Valence Basis Sets:  10
 -----------------------
   1 S    9.800000
   1 S    6.800000
   2 S    7.580000
   2 S    2.880000
   2 S    1.720000
   2 P    4.080000
   2 P    2.080000
   2 P    1.120000
   3 D    2.000000
   4 F    3.000000

 Charge Fitting Sets (for the computation of the Coulomb Potential):  22
 -----------------------------------------------------------------------
   1 S   19.600000
   2 S   22.600000
   2 S   15.680000
   2 S   10.890000
   2 S    7.560000
   3 S    7.690000
   3 S    5.650000
   3 S    4.150000
   3 S    3.050000
   3 S    2.240000
   2 P   12.860000
   2 P    7.680000
   3 P    6.780000
   3 P    4.390000
   3 P    2.840000
   3 D    8.800000
   3 D    5.580000
   3 D    3.530000
   3 D    2.240000
   4 F    6.200000
   4 F    3.700000
   5 G    4.500000


 BAS: List of all Elementary Cartesian Basis Functions
 =====================================================

 The numbering in the list below (to the right of the function characteristics) is referred
 to in print-outs of MO eigenvectors and Mulliken populations in the BAS representation
 (as contrasted to the SFO representation).

 Notes:
 1. The functions are characterized by a polynomial prefactor (powers of x,y,z and r) and
    an exponential decay factor alpha.
 2. Since the basis sets are specific for an atom TYPE, the individual functions occur on
    all atoms of that type.
 3. The word 'Core' in the left margin signals that it is a Core Function (CF) : not a
    degree of freedom in the valence set, but only used to ensure orthogonalization of
    the other valence basis functions on the frozen Core Orbitals.


 (power of) X  Y  Z  R     Alpha  on Atom
            ==========     =====     ==========

 Pa                                   1
                                  ---------------------------------------------------------------------------
            0  0  0  0  1028.000      1
            0  0  0  0   240.000      2
            0  0  0  0   107.000      3
            0  0  0  1   131.500      4
            0  0  0  1    46.500      5
            0  0  0  2    59.100      6
            0  0  0  2    25.450      7
            0  0  0  3    15.550      8
            0  0  0  3    11.050      9
            0  0  0  4    10.200     10
            0  0  0  4     7.100     11
            0  0  0  5     4.950     12
            0  0  0  5     3.250     13
            0  0  0  6     2.350     14
            0  0  0  6     1.550     15
            0  0  0  6     1.020     16
            1  0  0  0   240.000     17
            0  1  0  0   240.000     18
            0  0  1  0   240.000     19
            1  0  0  0    84.000     20
            0  1  0  0    84.000     21
            0  0  1  0    84.000     22
            1  0  0  0    43.600     23
            0  1  0  0    43.600     24
            0  0  1  0    43.600     25
            1  0  0  1    24.750     26
            0  1  0  1    24.750     27
            0  0  1  1    24.750     28
            1  0  0  1    17.850     29
            0  1  0  1    17.850     30
            0  0  1  1    17.850     31
            1  0  0  2    17.650     32
            0  1  0  2    17.650     33
            0  0  1  2    17.650     34
            1  0  0  2    12.100     35
            0  1  0  2    12.100     36
            0  0  1  2    12.100     37
            1  0  0  3     8.500     38
            0  1  0  3     8.500     39
            0  0  1  3     8.500     40
            1  0  0  3     5.900     41
            0  1  0  3     5.900     42
            0  0  1  3     5.900     43
            1  0  0  4     4.400     44
            0  1  0  4     4.400     45
            0  0  1  4     4.400     46
            1  0  0  4     3.000     47
            0  1  0  4     3.000     48
            0  0  1  4     3.000     49
            1  0  0  4     2.100     50
            0  1  0  4     2.100     51
            0  0  1  4     2.100     52
            2  0  0  0    33.750     53
            1  1  0  0    33.750     54
            1  0  1  0    33.750     55
            0  2  0  0    33.750     56
            0  1  1  0    33.750     57
            0  0  2  0    33.750     58
            2  0  0  0    21.750     59
            1  1  0  0    21.750     60
            1  0  1  0    21.750     61
            0  2  0  0    21.750     62
            0  1  1  0    21.750     63
            0  0  2  0    21.750     64
            2  0  0  1    15.300     65
            1  1  0  1    15.300     66
            1  0  1  1    15.300     67
            0  2  0  1    15.300     68
            0  1  1  1    15.300     69
            0  0  2  1    15.300     70
            2  0  0  1    10.450     71
            1  1  0  1    10.450     72
            1  0  1  1    10.450     73
            0  2  0  1    10.450     74
            0  1  1  1    10.450     75
            0  0  2  1    10.450     76
            2  0  0  2     7.150     77
            1  1  0  2     7.150     78
            1  0  1  2     7.150     79
            0  2  0  2     7.150     80
            0  1  1  2     7.150     81
            0  0  2  2     7.150     82
            2  0  0  2     4.600     83
            1  1  0  2     4.600     84
            1  0  1  2     4.600     85
            0  2  0  2     4.600     86
            0  1  1  2     4.600     87
            0  0  2  2     4.600     88
            2  0  0  3     3.000     89
            1  1  0  3     3.000     90
            1  0  1  3     3.000     91
            0  2  0  3     3.000     92
            0  1  1  3     3.000     93
            0  0  2  3     3.000     94
            2  0  0  3     1.700     95
            1  1  0  3     1.700     96
            1  0  1  3     1.700     97
            0  2  0  3     1.700     98
            0  1  1  3     1.700     99
            0  0  2  3     1.700    100
            2  0  0  3     0.980    101
            1  1  0  3     0.980    102
            1  0  1  3     0.980    103
            0  2  0  3     0.980    104
            0  1  1  3     0.980    105
            0  0  2  3     0.980    106
            3  0  0  0    17.100    107
            2  1  0  0    17.100    108
            2  0  1  0    17.100    109
            1  2  0  0    17.100    110
            1  1  1  0    17.100    111
            1  0  2  0    17.100    112
            0  3  0  0    17.100    113
            0  2  1  0    17.100    114
            0  1  2  0    17.100    115
            0  0  3  0    17.100    116
            3  0  0  0     9.350    117
            2  1  0  0     9.350    118
            2  0  1  0     9.350    119
            1  2  0  0     9.350    120
            1  1  1  0     9.350    121
            1  0  2  0     9.350    122
            0  3  0  0     9.350    123
            0  2  1  0     9.350    124
            0  1  2  0     9.350    125
            0  0  3  0     9.350    126
            3  0  0  1     5.850    127
            2  1  0  1     5.850    128
            2  0  1  1     5.850    129
            1  2  0  1     5.850    130
            1  1  1  1     5.850    131
            1  0  2  1     5.850    132
            0  3  0  1     5.850    133
            0  2  1  1     5.850    134
            0  1  2  1     5.850    135
            0  0  3  1     5.850    136
            3  0  0  1     3.150    137
            2  1  0  1     3.150    138
            2  0  1  1     3.150    139
            1  2  0  1     3.150    140
            1  1  1  1     3.150    141
            1  0  2  1     3.150    142
            0  3  0  1     3.150    143
            0  2  1  1     3.150    144
            0  1  2  1     3.150    145
            0  0  3  1     3.150    146
            3  0  0  1     1.550    147
            2  1  0  1     1.550    148
            2  0  1  1     1.550    149
            1  2  0  1     1.550    150
            1  1  1  1     1.550    151
            1  0  2  1     1.550    152
            0  3  0  1     1.550    153
            0  2  1  1     1.550    154
            0  1  2  1     1.550    155
            0  0  3  1     1.550    156
            1  0  0  5     1.550    157
            0  1  0  5     1.550    158
            0  0  1  5     1.550    159

 Cl                                   2    3    4    5    6    7
                                  ---------------------------------------------------------------------------
            0  0  0  0    20.300    160  198  236  274  312  350
            0  0  0  0    15.250    161  199  237  275  313  351
            0  0  0  1     6.250    162  200  238  276  314  352
            0  0  0  1     4.450    163  201  239  277  315  353
            1  0  0  0     8.850    164  202  240  278  316  354
            0  1  0  0     8.850    165  203  241  279  317  355
            0  0  1  0     8.850    166  204  242  280  318  356
            1  0  0  0     5.050    167  205  243  281  319  357
            0  1  0  0     5.050    168  206  244  282  320  358
            0  0  1  0     5.050    169  207  245  283  321  359
            0  0  0  2     3.450    170  208  246  284  322  360
            0  0  0  2     2.300    171  209  247  285  323  361
            0  0  0  2     1.600    172  210  248  286  324  362
            1  0  0  1     3.350    173  211  249  287  325  363
            0  1  0  1     3.350    174  212  250  288  326  364
            0  0  1  1     3.350    175  213  251  289  327  365
            1  0  0  1     2.050    176  214  252  290  328  366
            0  1  0  1     2.050    177  215  253  291  329  367
            0  0  1  1     2.050    178  216  254  292  330  368
            1  0  0  1     1.200    179  217  255  293  331  369
            0  1  0  1     1.200    180  218  256  294  332  370
            0  0  1  1     1.200    181  219  257  295  333  371
            2  0  0  0     2.000    182  220  258  296  334  372
            1  1  0  0     2.000    183  221  259  297  335  373
            1  0  1  0     2.000    184  222  260  298  336  374
            0  2  0  0     2.000    185  223  261  299  337  375
            0  1  1  0     2.000    186  224  262  300  338  376
            0  0  2  0     2.000    187  225  263  301  339  377
            3  0  0  0     2.000    188  226  264  302  340  378
            2  1  0  0     2.000    189  227  265  303  341  379
            2  0  1  0     2.000    190  228  266  304  342  380
            1  2  0  0     2.000    191  229  267  305  343  381
            1  1  1  0     2.000    192  230  268  306  344  382
            1  0  2  0     2.000    193  231  269  307  345  383
            0  3  0  0     2.000    194  232  270  308  346  384
            0  2  1  0     2.000    195  233  271  309  347  385
            0  1  2  0     2.000    196  234  272  310  348  386
            0  0  3  0     2.000    197  235  273  311  349  387

 O                                    8
                                  ---------------------------------------------------------------------------
            0  0  0  0     9.800    388
            0  0  0  0     6.800    389
            0  0  0  1     7.580    390
            0  0  0  1     2.880    391
            0  0  0  1     1.720    392
            1  0  0  0     4.080    393
            0  1  0  0     4.080    394
            0  0  1  0     4.080    395
            1  0  0  0     2.080    396
            0  1  0  0     2.080    397
            0  0  1  0     2.080    398
            1  0  0  0     1.120    399
            0  1  0  0     1.120    400
            0  0  1  0     1.120    401
            2  0  0  0     2.000    402
            1  1  0  0     2.000    403
            1  0  1  0     2.000    404
            0  2  0  0     2.000    405
            0  1  1  0     2.000    406
            0  0  2  0     2.000    407
            3  0  0  0     3.000    408
            2  1  0  0     3.000    409
            2  0  1  0     3.000    410
            1  2  0  0     3.000    411
            1  1  1  0     3.000    412
            1  0  2  0     3.000    413
            0  3  0  0     3.000    414
            0  2  1  0     3.000    415
            0  1  2  0     3.000    416
            0  0  3  0     3.000    417

 Total number of charge fitting functions (nprimf)      1117
 Total number of Cartesian basis functions (naos)        417
 Total number of Cartesian core functions  (ncos)          0

1
 ***************************************************************************************************



                                              ***********************
                                              *  T E C H N I C A L  *
                                              ***********************
  



 =============================================================
 P A R A L L E L I Z A T I O N  and  V E C T O R I Z A T I O N
 =============================================================
  
 Nr of parallel processes:                                8
 Maximum vector length in NumInt loops:                 128



 =====================
 S C F   U P D A T E S
 =====================
  
 Max. nr. of cycles:                               300
 Convergence criterion:                              0.0000010000
   secondary criterion:                              0.0010000000

 Mix parameter (when DIIS does not apply):           0.2000000000
 Mixed ADIIS+SDIIS will be used                  
    Max number of expansion vectors:                10
    Pure ADIIS when Max([F,P]) is above              0.1000000000
    Pure SDIIS when Max([F,P]) is below              0.0010000000
 Automatic ElectronSmearing (in case of problematic SCF convergence) disabled



 =================
 P R E C I S I O N  ***  (General: NumInt, NeglectFunctionTails, ...)  ***
 =================
  

 NumInt:           Target precision:                 6.0000000000
 -------           Initial precision:                6.0000000000
                   Min. precision (optimization):    6.0000000000

 Neglect Functions:          Basis functions:        0.1000000000E-07
 ------------------          Fit functions:          0.1000000000E-07



 ===========================
 L I N E A R   S C A L I N G
 ===========================
  

 Cut-off radii density fit:                        0.1000000000E-09
 Overlap cut-off criterion AO matrix elements:     0.1000000000E-07
 Cut-offs for Coulomb potential and fitted density:0.1000000000E-09
 Cut-off criterion for Coulomb multipole terms:    0.1000000000E-09
 Progressive Convergence parameter:                 0.000000000    
1
[...]
     451       49.9267         0.000       
     450       49.7161         0.000       
     449       49.7161         0.000       
     448       49.6956         0.000       
     447       49.6956         0.000       
     446       49.5289         0.000       
     445       49.5289         0.000       
     444       49.5184         0.000       
     443       49.5184         0.000       
     442       49.4199         0.000       
     441       49.4199         0.000       
     440       49.3437         0.000       
     439       49.3437         0.000       
     438       49.2368         0.000       
     437       49.2368         0.000       
     436       48.7990         0.000       
     435       48.7990         0.000       
     434       48.7681         0.000       
     433       48.7681         0.000       
     432       48.4664         0.000       
     431       48.4664         0.000       
     430       48.3784         0.000       
     429       48.3784         0.000       
     428       48.1917         0.000       
     427       48.1917         0.000       
     426       48.1825         0.000       
     425       48.1825         0.000       
     424       48.0681         0.000       
     423       48.0681         0.000       
     422       47.8222         0.000       
     421       47.8222         0.000       
     420       47.7926         0.000       
     419       47.7926         0.000       
     418       47.0283         0.000       
     417       47.0283         0.000       
     416       47.0219         0.000       
     415       47.0219         0.000       
     414       47.0035         0.000       
     413       47.0035         0.000       
     412       45.8492         0.000       
     411       45.8492         0.000       
     410       45.6222         0.000       
     409       45.6222         0.000       
     408       45.6080         0.000       
     407       45.6080         0.000       
     406       45.5281         0.000       
     405       45.5281         0.000       
     404       45.5236         0.000       
     403       45.5236         0.000       
     402       45.4744         0.000       
     401       45.4744         0.000       
     400       45.2349         0.000       
     399       45.2349         0.000       
     398       44.9320         0.000       
     397       44.9320         0.000       
     396       44.9103         0.000       
     395       44.9103         0.000       
     394       43.7804         0.000       
     393       43.7804         0.000       
     392       40.6342         0.000       
     391       40.6342         0.000       
     390       39.4740         0.000       
     389       39.4740         0.000       
     388       39.4194         0.000       
     387       39.4194         0.000       
     386       38.5344         0.000       
     385       38.5344         0.000       
     384       38.1235         0.000       
     383       38.1235         0.000       
     382       37.4357         0.000       
     381       37.4357         0.000       
     380       37.2638         0.000       
     379       37.2638         0.000       
     378       35.7002         0.000       
     377       35.7002         0.000       
     376       34.8208         0.000       
     375       34.8208         0.000       
     374       34.7714         0.000       
     373       34.7714         0.000       
     372       34.7133         0.000       
     371       34.7133         0.000       
     370       34.5864         0.000       
     369       34.5864         0.000       
     368       33.6849         0.000       
     367       33.6849         0.000       
     366       33.5145         0.000       
     365       33.5145         0.000       
     364       32.9550         0.000       
     363       32.9550         0.000       
     362       32.2852         0.000       
     361       32.2852         0.000       
     360       31.6648         0.000       
     359       31.6648         0.000       
     358       31.6250         0.000       
     357       31.6250         0.000       
     356       31.0403         0.000       
     355       31.0403         0.000       
     354       30.9440         0.000       
     353       30.9440         0.000       
     352       30.2567         0.000       
     351       30.2567         0.000       
     350       29.6631         0.000       
     349       29.6631         0.000       
     348       29.5775         0.000       
     347       29.5775         0.000       
     346       29.4565         0.000       
     345       29.4565         0.000       
     344       28.7905         0.000       
     343       28.7905         0.000       
     342       27.8273         0.000       
     341       27.8273         0.000       
     340       27.7004         0.000       
     339       27.7004         0.000       
     338       27.1742         0.000       
     337       27.1742         0.000       
     336       27.0557         0.000       
     335       27.0557         0.000       
     334       27.0462         0.000       
     333       27.0462         0.000       
     332       26.9394         0.000       
     331       26.9394         0.000       
     330       26.0223         0.000       
     329       26.0223         0.000       
     328       26.0059         0.000       
     327       26.0059         0.000       
     326       26.0041         0.000       
     325       26.0041         0.000       
     324       25.9994         0.000       
     323       25.9994         0.000       
     322       25.7645         0.000       
     321       25.7645         0.000       
     320       25.7260         0.000       
     319       25.7260         0.000       
     318       25.4696         0.000       
     317       25.4696         0.000       
     316       25.4609         0.000       
     315       25.4609         0.000       
     314       24.8830         0.000       
     313       24.8830         0.000       
     312       24.6812         0.000       
     311       24.6812         0.000       
     310       24.6568         0.000       
     309       24.6568         0.000       
     308       24.1727         0.000       
     307       24.1727         0.000       
     306       24.0325         0.000       
     305       24.0325         0.000       
     304       23.4076         0.000       
     303       23.4076         0.000       
     302       23.1891         0.000       
     301       23.1891         0.000       
     300       23.1171         0.000       
     299       23.1171         0.000       
     298       22.9446         0.000       
     297       22.9446         0.000       
     296       22.4534         0.000       
     295       22.4534         0.000       
     294       22.3624         0.000       
     293       22.3624         0.000       
     292       22.3366         0.000       
     291       22.3366         0.000       
     290       22.2654         0.000       
     289       22.2654         0.000       
     288       21.8262         0.000       
     287       21.8262         0.000       
     286       21.7559         0.000       
     285       21.7559         0.000       
     284       20.9524         0.000       
     283       20.9524         0.000       
     282       20.8090         0.000       
     281       20.8090         0.000       
     280       20.7475         0.000       
     279       20.7475         0.000       
     278       20.1225         0.000       
     277       20.1225         0.000       
     276       20.0761         0.000       
     275       20.0761         0.000       
     274       20.0095         0.000       
     273       20.0095         0.000       
     272       19.9794         0.000       
     271       19.9794         0.000       
     270       19.9729         0.000       
     269       19.9729         0.000       
     268       19.9554         0.000       
     267       19.9554         0.000       
     266       19.8575         0.000       
     265       19.8575         0.000       
     264       19.5556         0.000       
     263       19.5556         0.000       
     262       19.2313         0.000       
     261       19.2313         0.000       
     260       18.4179         0.000       
     259       18.4179         0.000       
     258       18.3864         0.000       
     257       18.3864         0.000       
     256       18.2058         0.000       
     255       18.2058         0.000       
     254       18.0000         0.000       
     253       18.0000         0.000       
     252       17.9265         0.000       
     251       17.9265         0.000       
     250       17.3886         0.000       
     249       17.3886         0.000       
     248       16.9435         0.000       
     247       16.9435         0.000       
     246       14.5721         0.000       
     245       14.5721         0.000       
     244       14.1673         0.000       
     243       14.1673         0.000       
     242       14.1320         0.000       
     241       14.1320         0.000       
     240       13.9483         0.000       
     239       13.9483         0.000       
     238       13.0889         0.000       
     237       13.0889         0.000       
     236       12.9088         0.000       
     235       12.9088         0.000       
     234       12.8251         0.000       
     233       12.8251         0.000       
     232       12.6019         0.000       
     231       12.6019         0.000       
     230       12.0555         0.000       
     229       12.0555         0.000       
     228       12.0098         0.000       
     227       12.0098         0.000       
     226       11.8870         0.000       
     225       11.8870         0.000       
     224       11.7424         0.000       
     223       11.7424         0.000       
     222       11.4555         0.000       
     221       11.4555         0.000       
     220       10.3191         0.000       
     219       10.3191         0.000       
     218        9.8418         0.000       
     217        9.8418         0.000       
     216        9.7583         0.000       
     215        9.7583         0.000       
     214        9.6878         0.000       
     213        9.6878         0.000       
     212        9.5553         0.000       
     211        9.5553         0.000       
     210        9.3982         0.000       
     209        9.3982         0.000       
     208        9.0879         0.000       
     207        9.0879         0.000       
     206        9.0614         0.000       
     205        9.0614         0.000 < LUMO
     204        4.1194         1.000 < HOMO
     203        4.1194         1.000       
     202        3.6366         1.000       
     201        3.6366         1.000       
     200        3.5282         1.000       
     199        3.5282         1.000       
     198        3.1072         1.000       
     197        3.1072         1.000       
     196        3.0865         1.000       
     195        3.0865         1.000       
     194        3.0762         1.000       
     193        3.0762         1.000       
     192        3.0595         1.000       
     191        3.0595         1.000       
     190        2.9733         1.000       
     189        2.9733         1.000       
     188        2.6139         1.000       
     187        2.6139         1.000       
     186        2.5405         1.000       
     185        2.5405         1.000       
     184        2.4597         1.000       
     183        2.4597         1.000       
     182        2.4002         1.000       
     181        2.4002         1.000       
     180        2.1186         1.000       
     179        2.1186         1.000       
     178        1.9135         1.000       
     177        1.9135         1.000       
     176        1.7877         1.000       
     175        1.7877         1.000       
     174        1.6441         1.000       
     173        1.6441         1.000       
     172        1.6143         1.000       
     171        1.6143         1.000       
     170        1.2362         1.000       
     169        1.2362         1.000       
     168        1.0391         1.000       
     167        1.0391         1.000       
     166        0.9724         1.000       
     165        0.9724         1.000       
     164        0.5385         1.000       
     163        0.5385         1.000       
     162       -8.9176         1.000       
     161       -8.9176         1.000       
     160       -9.4287         1.000       
     159       -9.4287         1.000       
     158       -9.9172         1.000       
     157       -9.9172         1.000       
     156       -9.9436         1.000       
     155       -9.9436         1.000       
     154      -10.1548         1.000       
     153      -10.1548         1.000       
     152      -10.3767         1.000       
     151      -10.3767         1.000       
     150      -11.5163         1.000       
     149      -11.5163         1.000       
     148      -12.8475         1.000       
     147      -12.8475         1.000       
     146      -16.2176         1.000       
     145      -16.2176         1.000       
     144      -21.3785         1.000       
     143      -21.3785         1.000       
     142      -39.0794         1.000       
     141      -39.0794         1.000       
     140      -85.8975         1.000       
     139      -85.8975         1.000       
     138      -85.9497         1.000       
     137      -85.9497         1.000       
     136      -86.0275         1.000       
     135      -86.0275         1.000       
     134      -93.3380         1.000       
     133      -93.3380         1.000       
     132      -93.4338         1.000       
     131      -93.4338         1.000       
     130     -183.5009         1.000       
     129     -183.5009         1.000       
     128     -183.6760         1.000       
     127     -183.6760         1.000       
     126     -184.0765         1.000       
     125     -184.0765         1.000       
     124     -184.0875         1.000       
     123     -184.0875         1.000       
     122     -184.0950         1.000       
     121     -184.0950         1.000       
     120     -184.1065         1.000       
     119     -184.1065         1.000       
     118     -184.1135         1.000       
     117     -184.1135         1.000       
     116     -184.1173         1.000       
     115     -184.1173         1.000       
     114     -184.1176         1.000       
     113     -184.1176         1.000       
     112     -184.1247         1.000       
     111     -184.1247         1.000       
     110     -184.1430         1.000       
     109     -184.1430         1.000       
     108     -184.1471         1.000       
     107     -184.1471         1.000       
     106     -185.0904         1.000       
     105     -185.0904         1.000       
     104     -185.1113         1.000       
     103     -185.1113         1.000       
     102     -185.7715         1.000       
     101     -185.7715         1.000       
     100     -185.7824         1.000       
      99     -185.7824         1.000       
      98     -185.7899         1.000       
      97     -185.7899         1.000       
      96     -185.8083         1.000       
      95     -185.8083         1.000       
      94     -185.8124         1.000       
      93     -185.8124         1.000       
      92     -186.7813         1.000       
      91     -186.7813         1.000       
      90     -231.8623         1.000       
      89     -231.8623         1.000       
      88     -248.1983         1.000       
      87     -248.1983         1.000       
      86     -248.2092         1.000       
      85     -248.2092         1.000       
      84     -248.2167         1.000       
      83     -248.2167         1.000       
      82     -248.2351         1.000       
      81     -248.2351         1.000       
      80     -248.2392         1.000       
      79     -248.2392         1.000       
      78     -249.2092         1.000       
      77     -249.2092         1.000       
      76     -294.2918         1.000       
      75     -294.2918         1.000       
      74     -344.8452         1.000       
      73     -344.8452         1.000       
      72     -344.9038         1.000       
      71     -344.9038         1.000       
      70     -345.0144         1.000       
      69     -345.0144         1.000       
      68     -345.1223         1.000       
      67     -345.1223         1.000       
      66     -354.6352         1.000       
      65     -354.6352         1.000       
      64     -354.7391         1.000       
      63     -354.7391         1.000       
      62     -354.8825         1.000       
      61     -354.8825         1.000       
      60     -511.4290         1.000       
      59     -511.4290         1.000       
      58     -685.2725         1.000       
      57     -685.2725         1.000       
      56     -685.3956         1.000       
      55     -685.3956         1.000       
      54     -685.5371         1.000       
      53     -685.5371         1.000       
      52     -724.7000         1.000       
      51     -724.7000         1.000       
      50     -724.8968         1.000       
      49     -724.8968         1.000       
      48     -975.5117         1.000       
      47     -975.5117         1.000       
      46     -975.7165         1.000       
      45     -975.7165         1.000       
      44    -1182.6730         1.000       
      43    -1182.6730         1.000       
      42    -1346.4387         1.000       
      41    -1346.4387         1.000       
      40    -2764.4298         1.000       
      39    -2764.4298         1.000       
      38    -2764.4405         1.000       
      37    -2764.4405         1.000       
      36    -2764.4479         1.000       
      35    -2764.4479         1.000       
      34    -2764.4659         1.000       
      33    -2764.4659         1.000       
      32    -2764.4699         1.000       
      31    -2764.4699         1.000       
      30    -2765.4245         1.000       
      29    -2765.4245         1.000       
      28    -3403.8094         1.000       
      27    -3403.8094         1.000       
      26    -3403.8622         1.000       
      25    -3403.8622         1.000       
      24    -3403.9295         1.000       
      23    -3403.9295         1.000       
      22    -3570.7503         1.000       
      21    -3570.7503         1.000       
      20    -3570.8336         1.000       
      19    -3570.8336         1.000       
      18    -4125.8281         1.000       
      17    -4125.8281         1.000       
      16    -4125.9462         1.000       
      15    -4125.9462         1.000       
      14    -4922.4117         1.000       
      13    -4922.4117         1.000       
      12    -5300.4112         1.000       
      11    -5300.4112         1.000       
      10   -16649.7104         1.000       
       9   -16649.7104         1.000       
       8   -16649.7282         1.000       
       7   -16649.7282         1.000       
       6   -20128.4916         1.000       
       5   -20128.4916         1.000       
       4   -21005.2109         1.000       
       3   -21005.2109         1.000       
       2  -112623.0382         1.000       
       1  -112623.0382         1.000       

AMS application finished. Exiting.
NORMAL TERMINATION
     Total cpu time:     728.54
  Total system time:      32.77
 Total elapsed time:     763.52
