

 Parallel Execution: Process Information
 ==============================================================================
 Rank   Node Name                              NodeID   MyNodeRank  NodeMaster
    0   u-0-1.local                               0          0          0
    1   u-0-1.local                               0          1         -1
    2   u-0-1.local                               0          2         -1
    3   u-0-1.local                               0          3         -1
    4   u-0-1.local                               1          0          1
    5   u-0-1.local                               1          1         -1
    6   u-0-1.local                               1          2         -1
    7   u-0-1.local                               1          3         -1
    8   u-0-1.local                               2          0          2
    9   u-0-1.local                               2          1         -1
   10   u-0-1.local                               2          2         -1
   11   u-0-1.local                               2          3         -1
   12   u-0-1.local                               3          0          3
   13   u-0-1.local                               3          1         -1
   14   u-0-1.local                               3          2         -1
   15   u-0-1.local                               3          3         -1
 ==============================================================================


May use up to 31228MB of RAM as shared memory on node 0
May use up to 31250MB of RAM as shared memory on node 1
May use up to 31250MB of RAM as shared memory on node 3
May use up to 31250MB of RAM as shared memory on node 2

 *******************************************************************************
 *                                                                             *
 *  --------------------------------                                           *
 *   Amsterdam Modeling Suite (AMS)              2023.104                      *
 *  --------------------------------                                           *
 *                                               r115785 2023-10-06            *
 *                                                                             *
 *                                                                             *
 *                              =================                              *
 *                              |               |                              *
 *                              |     A M S     |                              *
 *                              |               |                              *
 *                              =================                              *
 *                                                                             *
 *                                                                             *
 *   Online information and documentation:  https://www.scm.com/support/       *
 *   E-mail:  support@scm.com   info@scm.com                                   *
 *                                                                             *
 *   Scientific publications using AMS results must be properly referenced     *
 *   See the User Manuals (or the web site) for recommended citations          *
 *   The terms and conditions of the End User License Agreement apply to       *
 *   the use of AMS, https://www.scm.com/license-terms/                        *
 *                                                                             *
 **********************  x86_64_linux_intel / intelmpi  ************************
 
 Licensed to: Dr. Val?rie Vallet / Laboratoire PhLAM UMR 8523 / Villeneuve d'Ascq Cedex / FRANCE 2024-02-19 16:59:55
 SCM User ID: u10325
  
 AMS 2023.104  RunTime: Jun13-2024 17:33:19  ShM Nodes: 4  Procs: 16

 AMS jobname: pao_cl6.pbe0.tz2p.opt-freq-solvation
 AMS jobid  : 1762916214

 Start   directory: /home/shaaban/ams/PhD/geometries-exafs/paocl3/pao_cl6/PBE0/
 Results directory: /home/shaaban/ams/PhD/geometries-exafs/paocl3/pao_cl6/PBE0/pao_cl6.pbe0.tz2p.opt-freq-solvation.results/
 Scratch directory: /state/partition2/shaaban/1020795.phlam-s-sakura/amstmp_pao_cl6.pbe0.tz2p.opt-freq-solvation_kid0.1762916214/


 Communication costs MPI_COMM_WORLD:     -2.141 usec per message,   0.0472 usec per 8-byte item
 Communication costs for intra-node:      0.124 usec per message,   0.0087 usec per 8-byte item

 RNG seed: -394180861 1697743667 1559104986 244640989 382095035 -251100804 -190193420 1997890806



                     *************************************************************************
                     *  ADF 2023.104  RunTime: Jun13-2024 17:33:20  ShM Nodes: 4  Procs: 16  *
                     *************************************************************************
  

       ***************************
       *  GEOMETRY OPTIMIZATION  *
       ***************************

Optimization Method                    Quasi Newton
Optimization Coordinates               Delocalized Coordinates
Optimize lattice                       F
 
 ------------------------------------------------------
 Convergence criteria (Hartree,Angstrom)
 ------------------------------------------------------
 Maximum gradient               0.000100000000
 Maximum rms gradient           0.000066666667
 Maximum step allowed           0.001000000000
 Maximum rms step allowed       0.000666666667
 Maximum energy change allowe   0.000008000000
 Maximum stress energy allowe   0.000500000000
 
Initial model Hessian                  Automatic Hessian
 
------------------------------------
Quasi-Newton Optimizer Parameters
------------------------------------
Hessian Update Method                  BFGS
Maximum number of steps                  250
First GDIIS cycle                          0
Maximum GDIIS vectors                      0
Trust radius (bohr)                        0.200000
Trust radius varies                        T
Constraints converged at all steps         T
Use projector                              T
 
 Rigid motions settings for: old optimizer
 Atomic rotations (x,y,z):     T T T
 Atomic translations (x,y,z):  T T T
 Tolerance:                   1.000000000000000E-006
 
--------
Geometry
--------
Formula: Cl6OPa
Atoms
  Index Symbol   x (angstrom)   y (angstrom)   z (angstrom)
      1     Pa    -0.35487985    -0.79517735     0.33968118       adf.R=2.200
      2     Cl     1.30796413     1.31260957    -0.55952144       adf.R=1.725
      3     Cl    -0.72180510    -2.68806483     2.40800218       adf.R=1.725
      4     Cl     1.50345753    -0.21443606     2.38666156       adf.R=1.725
      5     Cl    -2.43954021    -2.54836252    -0.43534222       adf.R=1.725
      6     Cl    -1.21345182    -0.04610940    -2.24783830       adf.R=1.725
      7      O    -1.56736945     0.37251302     1.10493427       adf.R=1.517
      8     Cl     1.39469021    -2.48539856    -0.77051726       adf.R=1.725
 
Total System Charge            -3.00000
Bonding info available!
 
 
----------------
ADF Engine Input
----------------
 
 Basis
 Type TZ2P
 Core None
 End
 XC
 Hybrid PBE0
 End
 Solvation
 Surf Delley
 Solv name=Water cav0=0.0 cav1=0.0067639
 Charged method=CONJ
 C-Mat POT
 SCF VAR ALL
 CSMRSP
 End
 NumericalQuality Good
 

 Title: *** (NO TITLE) ***

 Using automatic Hessian for delocalized coordinates.
 *** GO1_GOStep1 ***

 SOLVATION
-------------------------------------------

  The Delley construction of COSMO surface surface is calculated

       Division Level for Surface Triangles (NDIV)                  3
       Final Division Level for Triangles (NFDIV)                   1
       Radius of the Solvent (RSOL)                           1.93000 angstr
  Dielectric Constant (EPSL)                                 78.39000

       COSMO equation is solved iteratively-               conjugate-gradient

       Maximun of Iterations for Charges (NCIX)                  1000
       Criterion for Charge convergence (CCNV)                1.0E-08

  COSMO charges included variationally in SCF

       COSMO included at every SCF cycle

  Geometry-dependent empirical factor                         0.00000

  C-Matrix calculated in cspmtx

  In cspmtx, C-Matrix calculated using fitted potential

-------------------------------------------



 -------------------------------------------
  COSMO surface
  Area             =          638.909
  Volume           =         1174.940
  Number of Points =         1388
 -------------------------------------------



 ======================
 RI Hartree-Fock Scheme
 ======================
  
 Fit Set Quality     : GOOD
 Threshold Quality   : GOOD
 Integration Quality : GOOD
 Fit Generation Method : AUTO
 Response Quality    : DEFAULT
 Is Range Separated  :  F
 
 RIHartreeFock Dependency: number of modified vectors:           6
 cosmo_calcen: 0.5 (esolb+esolc) (Hartrees) =   -0.591187

 Solvation energy (screening term,uncorrected) =   -370.975720 kcal/mol

 Solvation energy (dispersion and cavitation terms) =      1.194711 kcal/mol
 Solvation Energy Contributions (Hartrees)
          esola   esolb+esolc
     0.59118738   -1.18237476
 esol last cycle   -0.59118738
  
 Hartree-Fock exchange energy:   -641.308932868605     
 cosmo_calcen: 0.5 (esolb+esolc) (Hartrees) =   -0.591187

 Solvation energy (screening term,uncorrected) =   -370.975704 kcal/mol

 Solvation energy (dispersion and cavitation terms) =      1.194711 kcal/mol
 Solvation Energy Contributions (Hartrees)
          esola   esolb+esolc
     0.59118735   -1.18237471
 esol last cycle   -0.59118735

 Energy gradients wrt nuclear displacements
 ==========================================

     Atom      Cartesian (a.u./angstrom)
                 X         Y         Z
 ----------------------------------------
     1 Pa    0.019053 -0.018902 -0.010095
     2 Cl    0.007024  0.009860 -0.003925
     3 Cl   -0.002296 -0.007779  0.009293
     4 Cl    0.007124  0.003520  0.008930
     5 Cl   -0.009941 -0.006992 -0.003333
     6 Cl   -0.004275  0.003987 -0.010904
     7 O    -0.025551  0.024643  0.016120
     8 Cl    0.008861 -0.008336 -0.006085
 ----------------------------------------
 Mulliken charges used for AMS results%charges...
 Residual max backtransformation error   0.1570E+00

 Delocalized step failed. Taking Cartesian step

 
----------------------------------------------------------------------
Geometry Convergence after Step   1       (Hartree/Angstrom,Angstrom)
----------------------------------------------------------------------
current energy                               -2.43146239 Hartree
energy change                      -2.43146239     0.00000800    F
constrained gradient max            0.02556289     0.00010000    F
constrained gradient rms            0.01171909     0.00006667    F
gradient max                        0.02556289
gradient rms                        0.01171909
cart. step max                      0.20578905     0.00100000    F
cart. step rms                      0.11096017     0.00066667    F
 
 
--------
Geometry
--------
Formula: Cl6OPa
Atoms
  Index Symbol   x (angstrom)   y (angstrom)   z (angstrom)
      1     Pa    -0.47565820    -0.66278724     0.39080336       adf.R=2.200
      2     Cl     1.24470147     1.21570162    -0.52042138       adf.R=1.725
      3     Cl    -0.65034610    -2.60463931     2.26710804       adf.R=1.725
      4     Cl     1.49389105    -0.37057729     2.22558476       adf.R=1.725
      5     Cl    -2.26153983    -2.52724231    -0.42451654       adf.R=1.725
      6     Cl    -1.13180416    -0.13176526    -2.17930917       adf.R=1.725
      7      O    -1.49907994     0.31280810     1.05463057       adf.R=1.517
      8     Cl     1.18890116    -2.32392442    -0.58781967       adf.R=1.725
 
Total System Charge            -3.00000
Bonding info available!
 
 *** GO1_GOStep2 ***

 SOLVATION
-------------------------------------------

  The Delley construction of COSMO surface surface is calculated

       Division Level for Surface Triangles (NDIV)                  3
       Final Division Level for Triangles (NFDIV)                   1
       Radius of the Solvent (RSOL)                           1.93000 angstr
  Dielectric Constant (EPSL)                                 78.39000

       COSMO equation is solved iteratively-               conjugate-gradient

       Maximun of Iterations for Charges (NCIX)                  1000
       Criterion for Charge convergence (CCNV)                1.0E-08

  COSMO charges included variationally in SCF

       COSMO included at every SCF cycle

  Geometry-dependent empirical factor                         0.00000

  C-Matrix calculated in cspmtx

  In cspmtx, C-Matrix calculated using fitted potential

-------------------------------------------



 -------------------------------------------
  COSMO surface
  Area             =          600.453
  Volume           =         1108.633
  Number of Points =         1346
 -------------------------------------------



 ======================
 RI Hartree-Fock Scheme
 ======================
  
 Fit Set Quality     : GOOD
 Threshold Quality   : GOOD
 Integration Quality : GOOD
 Fit Generation Method : AUTO
 Response Quality    : DEFAULT
 Is Range Separated  :  F
 
 RIHartreeFock Dependency: number of modified vectors:           6
 cosmo_calcen: 0.5 (esolb+esolc) (Hartrees) =   -0.609822

 Solvation energy (screening term,uncorrected) =   -382.668887 kcal/mol

 Solvation energy (dispersion and cavitation terms) =      1.122802 kcal/mol
 Solvation Energy Contributions (Hartrees)
          esola   esolb+esolc
     0.60982162   -1.21964325
 esol last cycle   -0.60982162
  
 Hartree-Fock exchange energy:   -641.762566246062     
 cosmo_calcen: 0.5 (esolb+esolc) (Hartrees) =   -0.609822

 Solvation energy (screening term,uncorrected) =   -382.668869 kcal/mol

 Solvation energy (dispersion and cavitation terms) =      1.122802 kcal/mol
 Solvation Energy Contributions (Hartrees)
          esola   esolb+esolc
     0.60982160   -1.21964319
 esol last cycle   -0.60982160

 Energy gradients wrt nuclear displacements
 ==========================================

     Atom      Cartesian (a.u./angstrom)
                 X         Y         Z
 ----------------------------------------
     1 Pa   -0.481036  0.459373  0.305555
     2 Cl   -0.020365 -0.034659  0.011927
     3 Cl    0.014044  0.027710 -0.037102
     4 Cl   -0.028084 -0.016682 -0.032848
     5 Cl    0.036721  0.022721  0.011544
     6 Cl    0.014988 -0.014095  0.036782
     7 O     0.499701 -0.476717 -0.322902
     8 Cl   -0.035970  0.032349  0.027045
 ----------------------------------------
 Mulliken charges used for AMS results%charges...

 dE(predicted):    -0.67238E-03, dE(actual):     0.98829E-01, Trust radius:    0.150000, all in a.u.
 
----------------------------------------------------------------------
Geometry Convergence after Step   2       (Hartree/Angstrom,Angstrom)
----------------------------------------------------------------------
current energy                               -2.33263355 Hartree
energy change                       0.09882884     0.00000800    F
constrained gradient max            0.49973960     0.00010000    F
constrained gradient rms            0.21699658     0.00006667    F
gradient max                        0.49973960
gradient rms                        0.21699658
cart. step max                      0.04138974     0.00100000    F
cart. step rms                      0.01482262     0.00066667    F
 
 
--------
Geometry
--------
Formula: Cl6OPa
Atoms
  Index Symbol   x (angstrom)   y (angstrom)   z (angstrom)
      1     Pa    -0.46598611    -0.67230947     0.38671754       adf.R=2.200
      2     Cl     1.25047774     1.21833590    -0.52119164       adf.R=1.725
      3     Cl    -0.65310481    -2.60934051     2.27464997       adf.R=1.725
      4     Cl     1.50521858    -0.37442219     2.22651375       adf.R=1.725
      5     Cl    -2.25927373    -2.53644432    -0.43010622       adf.R=1.725
      6     Cl    -1.12792173    -0.13807721    -2.18640153       adf.R=1.725
      7      O    -1.54036136     0.35419784     1.08018130       adf.R=1.517
      8     Cl     1.20001686    -2.33436616    -0.60430320       adf.R=1.725
 
Total System Charge            -3.00000
Bonding info available!
 
 *** GO1_GOStep3 ***

 SOLVATION
-------------------------------------------

  The Delley construction of COSMO surface surface is calculated

       Division Level for Surface Triangles (NDIV)                  3
       Final Division Level for Triangles (NFDIV)                   1
       Radius of the Solvent (RSOL)                           1.93000 angstr
  Dielectric Constant (EPSL)                                 78.39000

       COSMO equation is solved iteratively-               conjugate-gradient

       Maximun of Iterations for Charges (NCIX)                  1000
       Criterion for Charge convergence (CCNV)                1.0E-08

  COSMO charges included variationally in SCF

       COSMO included at every SCF cycle

  Geometry-dependent empirical factor                         0.00000

  C-Matrix calculated in cspmtx

  In cspmtx, C-Matrix calculated using fitted potential

-------------------------------------------



 -------------------------------------------
  COSMO surface
  Area             =          602.511
  Volume           =         1112.983
  Number of Points =         1341
 -------------------------------------------



 ======================
 RI Hartree-Fock Scheme
 ======================
  
 Fit Set Quality     : GOOD
 Threshold Quality   : GOOD
 Integration Quality : GOOD
 Fit Generation Method : AUTO
 Response Quality    : DEFAULT
 Is Range Separated  :  F
 
 RIHartreeFock Dependency: number of modified vectors:           6
 cosmo_calcen: 0.5 (esolb+esolc) (Hartrees) =   -0.606211

 Solvation energy (screening term,uncorrected) =   -380.403018 kcal/mol

 Solvation energy (dispersion and cavitation terms) =      1.126650 kcal/mol
 Solvation Energy Contributions (Hartrees)
          esola   esolb+esolc
     0.60621073   -1.21242147
 esol last cycle   -0.60621073
  
 Hartree-Fock exchange energy:   -641.654771598912     
 cosmo_calcen: 0.5 (esolb+esolc) (Hartrees) =   -0.606211

 Solvation energy (screening term,uncorrected) =   -380.403015 kcal/mol

 Solvation energy (dispersion and cavitation terms) =      1.126650 kcal/mol
 Solvation Energy Contributions (Hartrees)
          esola   esolb+esolc
     0.60621073   -1.21242146
 esol last cycle   -0.60621073

 Energy gradients wrt nuclear displacements
 ==========================================

     Atom      Cartesian (a.u./angstrom)
                 X         Y         Z
 ----------------------------------------
     1 Pa   -0.280600  0.269348  0.176507
     2 Cl   -0.016332 -0.029804  0.009741
     3 Cl    0.012895  0.022874 -0.032043
     4 Cl   -0.023419 -0.015088 -0.028140
     5 Cl    0.031989  0.018588  0.009240
     6 Cl    0.012986 -0.012819  0.030462
     7 O     0.295072 -0.282178 -0.189689
     8 Cl   -0.032592  0.029078  0.023923
 ----------------------------------------
 Mulliken charges used for AMS results%charges...

 dE(predicted):    -0.46747E-01, dE(actual):    -0.48369E-01, Trust radius:    0.300000, all in a.u.
 
----------------------------------------------------------------------
Geometry Convergence after Step   3       (Hartree/Angstrom,Angstrom)
----------------------------------------------------------------------
current energy                               -2.38100298 Hartree
energy change                      -0.04836943     0.00000800    F
constrained gradient max            0.29509591     0.00010000    F
constrained gradient rms            0.12826447     0.00006667    F
gradient max                        0.29509591
gradient rms                        0.12826447
cart. step max                      0.10316395     0.00100000    F
cart. step rms                      0.04167584     0.00066667    F
 
 
--------
Geometry
--------
Formula: Cl6OPa
Atoms
  Index Symbol   x (angstrom)   y (angstrom)   z (angstrom)
      1     Pa    -0.41206344    -0.73363648     0.35851692       adf.R=2.200
      2     Cl     1.22131843     1.27412041    -0.50559663       adf.R=1.725
      3     Cl    -0.70204761    -2.61367730     2.32121233       adf.R=1.725
      4     Cl     1.52502066    -0.36226733     2.25131579       adf.R=1.725
      5     Cl    -2.33953211    -2.51076988    -0.41247760       adf.R=1.725
      6     Cl    -1.13258315    -0.14866855    -2.20750355       adf.R=1.725
      7      O    -1.55422816     0.37082941     1.08784162       adf.R=1.517
      8     Cl     1.30318081    -2.36835640    -0.66724891       adf.R=1.725
 
Total System Charge            -3.00000
Bonding info available!
 
 *** GO1_GOStep4 ***

 SOLVATION
-------------------------------------------

  The Delley construction of COSMO surface surface is calculated

       Division Level for Surface Triangles (NDIV)                  3
       Final Division Level for Triangles (NFDIV)                   1
       Radius of the Solvent (RSOL)                           1.93000 angstr
  Dielectric Constant (EPSL)                                 78.39000

       COSMO equation is solved iteratively-               conjugate-gradient

       Maximun of Iterations for Charges (NCIX)                  1000
       Criterion for Charge convergence (CCNV)                1.0E-08

  COSMO charges included variationally in SCF

       COSMO included at every SCF cycle

  Geometry-dependent empirical factor                         0.00000

  C-Matrix calculated in cspmtx

  In cspmtx, C-Matrix calculated using fitted potential

-------------------------------------------



 -------------------------------------------
  COSMO surface
  Area             =          609.585
  Volume           =         1126.006
  Number of Points =         1344
 -------------------------------------------



 ======================
 RI Hartree-Fock Scheme
 ======================
  
 Fit Set Quality     : GOOD
 Threshold Quality   : GOOD
 Integration Quality : GOOD
 Fit Generation Method : AUTO
 Response Quality    : DEFAULT
 Is Range Separated  :  F
 
 RIHartreeFock Dependency: number of modified vectors:           6
 cosmo_calcen: 0.5 (esolb+esolc) (Hartrees) =   -0.600727

 Solvation energy (screening term,uncorrected) =   -376.961834 kcal/mol

 Solvation energy (dispersion and cavitation terms) =      1.139876 kcal/mol
 Solvation Energy Contributions (Hartrees)
          esola   esolb+esolc
     0.60072686   -1.20145372
 esol last cycle   -0.60072686
  
 Hartree-Fock exchange energy:   -641.506092158554     
 cosmo_calcen: 0.5 (esolb+esolc) (Hartrees) =   -0.600727

 Solvation energy (screening term,uncorrected) =   -376.961824 kcal/mol

 Solvation energy (dispersion and cavitation terms) =      1.139876 kcal/mol
 Solvation Energy Contributions (Hartrees)
          esola   esolb+esolc
     0.60072684   -1.20145368
 esol last cycle   -0.60072684

 Energy gradients wrt nuclear displacements
 ==========================================

     Atom      Cartesian (a.u./angstrom)
                 X         Y         Z
 ----------------------------------------
     1 Pa   -0.093312  0.090741  0.056930
     2 Cl   -0.009064 -0.017819  0.005559
     3 Cl    0.006808  0.013116 -0.017941
     4 Cl   -0.013458 -0.008977 -0.016507
     5 Cl    0.017912  0.011304  0.005133
     6 Cl    0.006886 -0.007965  0.018300
     7 O     0.102302 -0.099066 -0.065406
     8 Cl   -0.018073  0.018667  0.013932
 ----------------------------------------
 Mulliken charges used for AMS results%charges...

 dE(predicted):    -0.32366E-01, dE(actual):    -0.40887E-01, Trust radius:    0.600000, all in a.u.
 
----------------------------------------------------------------------
Geometry Convergence after Step   4       (Hartree/Angstrom,Angstrom)
----------------------------------------------------------------------
current energy                               -2.42189023 Hartree
energy change                      -0.04088725     0.00000800    F
constrained gradient max            0.10231840     0.00010000    F
constrained gradient rms            0.04473745     0.00006667    F
gradient max                        0.10231840
gradient rms                        0.04473745
cart. step max                      0.20979419     0.00100000    F
cart. step rms                      0.09307461     0.00066667    F
 
 
--------
Geometry
--------
Formula: Cl6OPa
Atoms
  Index Symbol   x (angstrom)   y (angstrom)   z (angstrom)
      1     Pa    -0.37987395    -0.73533844     0.38667694       adf.R=2.200
      2     Cl     1.25964623     1.30760515    -0.47059696       adf.R=1.725
      3     Cl    -0.81316357    -2.52036096     2.44987231       adf.R=1.725
      4     Cl     1.58687550    -0.31823838     2.28052417       adf.R=1.725
      5     Cl    -2.12973792    -2.67476382    -0.50801455       adf.R=1.725
      6     Cl    -1.16686581    -0.07548943    -2.17098657       adf.R=1.725
      7      O    -1.58741474     0.40416904     1.09508700       adf.R=1.517
      8     Cl     1.13959970    -2.48000928    -0.83650237       adf.R=1.725
 
Total System Charge            -3.00000
Bonding info available!
 
 *** GO1_GOStep5 ***

 SOLVATION
-------------------------------------------

  The Delley construction of COSMO surface surface is calculated

       Division Level for Surface Triangles (NDIV)                  3
       Final Division Level for Triangles (NFDIV)                   1
       Radius of the Solvent (RSOL)                           1.93000 angstr
  Dielectric Constant (EPSL)                                 78.39000

       COSMO equation is solved iteratively-               conjugate-gradient

       Maximun of Iterations for Charges (NCIX)                  1000
       Criterion for Charge convergence (CCNV)                1.0E-08

  COSMO charges included variationally in SCF

       COSMO included at every SCF cycle

  Geometry-dependent empirical factor                         0.00000

  C-Matrix calculated in cspmtx

  In cspmtx, C-Matrix calculated using fitted potential

-------------------------------------------



 -------------------------------------------
  COSMO surface
  Area             =          619.008
  Volume           =         1142.777
  Number of Points =         1365
 -------------------------------------------



 ======================
 RI Hartree-Fock Scheme
 ======================
  
 Fit Set Quality     : GOOD
 Threshold Quality   : GOOD
 Integration Quality : GOOD
 Fit Generation Method : AUTO
 Response Quality    : DEFAULT
 Is Range Separated  :  F
 
 RIHartreeFock Dependency: number of modified vectors:           6
 cosmo_calcen: 0.5 (esolb+esolc) (Hartrees) =   -0.597489

 Solvation energy (screening term,uncorrected) =   -374.930283 kcal/mol

 Solvation energy (dispersion and cavitation terms) =      1.157498 kcal/mol
 Solvation Energy Contributions (Hartrees)
          esola   esolb+esolc
     0.59748938   -1.19497875
 esol last cycle   -0.59748938
  
 Hartree-Fock exchange energy:   -641.420299683803     
 cosmo_calcen: 0.5 (esolb+esolc) (Hartrees) =   -0.597489

 Solvation energy (screening term,uncorrected) =   -374.930268 kcal/mol

 Solvation energy (dispersion and cavitation terms) =      1.157498 kcal/mol
 Solvation Energy Contributions (Hartrees)
          esola   esolb+esolc
     0.59748935   -1.19497870
 esol last cycle   -0.59748935

 Energy gradients wrt nuclear displacements
 ==========================================

     Atom      Cartesian (a.u./angstrom)
                 X         Y         Z
 ----------------------------------------
     1 Pa   -0.027303  0.032661  0.023058
     2 Cl   -0.002890 -0.007297  0.004597
     3 Cl    0.002157  0.002388 -0.007369
     4 Cl   -0.004256  0.000891 -0.006704
     5 Cl    0.018752  0.003062 -0.001427
     6 Cl    0.005235 -0.007346  0.006498
     7 O     0.030376 -0.028079 -0.018710
     8 Cl   -0.022070  0.003721  0.000058
 ----------------------------------------
 Mulliken charges used for AMS results%charges...

 dE(predicted):    -0.83064E-02, dE(actual):    -0.60497E-02, Trust radius:    0.600000, all in a.u.
 
----------------------------------------------------------------------
Geometry Convergence after Step   5       (Hartree/Angstrom,Angstrom)
----------------------------------------------------------------------
current energy                               -2.42793997 Hartree
energy change                      -0.00604973     0.00000800    F
constrained gradient max            0.03266390     0.00010000    F
constrained gradient rms            0.01528050     0.00006667    F
gradient max                        0.03266390
gradient rms                        0.01528050
cart. step max                      0.21469619     0.00100000    F
cart. step rms                      0.07532021     0.00066667    F
 
 
--------
Geometry
--------
Formula: Cl6OPa
Atoms
  Index Symbol   x (angstrom)   y (angstrom)   z (angstrom)
      1     Pa    -0.33766068    -0.80297388     0.33639949       adf.R=2.200
      2     Cl     1.18258803     1.35737322    -0.48616187       adf.R=1.725
      3     Cl    -0.81326924    -2.56201673     2.42885475       adf.R=1.725
      4     Cl     1.57403911    -0.33495574     2.29154571       adf.R=1.725
      5     Cl    -2.34271982    -2.56332708    -0.42441827       adf.R=1.725
      6     Cl    -1.15143520    -0.08971875    -2.21075762       adf.R=1.725
      7      O    -1.55677265     0.37854041     1.09039727       adf.R=1.517
      8     Cl     1.35429588    -2.47534756    -0.79979949       adf.R=1.725
 
Total System Charge            -3.00000
Bonding info available!
 
 *** GO1_GOStep6 ***

 SOLVATION
-------------------------------------------

  The Delley construction of COSMO surface surface is calculated

       Division Level for Surface Triangles (NDIV)                  3
       Final Division Level for Triangles (NFDIV)                   1
       Radius of the Solvent (RSOL)                           1.93000 angstr
  Dielectric Constant (EPSL)                                 78.39000

       COSMO equation is solved iteratively-               conjugate-gradient

       Maximun of Iterations for Charges (NCIX)                  1000
       Criterion for Charge convergence (CCNV)                1.0E-08

  COSMO charges included variationally in SCF

       COSMO included at every SCF cycle

  Geometry-dependent empirical factor                         0.00000

  C-Matrix calculated in cspmtx

  In cspmtx, C-Matrix calculated using fitted potential

-------------------------------------------



 -------------------------------------------
  COSMO surface
  Area             =          629.099
  Volume           =         1158.601
  Number of Points =         1372
 -------------------------------------------



 ======================
 RI Hartree-Fock Scheme
 ======================
  
 Fit Set Quality     : GOOD
 Threshold Quality   : GOOD
 Integration Quality : GOOD
 Fit Generation Method : AUTO
 Response Quality    : DEFAULT
 Is Range Separated  :  F
 
 RIHartreeFock Dependency: number of modified vectors:           6
 cosmo_calcen: 0.5 (esolb+esolc) (Hartrees) =   -0.597097

 Solvation energy (screening term,uncorrected) =   -374.683821 kcal/mol

 Solvation energy (dispersion and cavitation terms) =      1.176367 kcal/mol
 Solvation Energy Contributions (Hartrees)
          esola   esolb+esolc
     0.59709661   -1.19419322
 esol last cycle   -0.59709661
  
 Hartree-Fock exchange energy:   -641.355666070256     
 cosmo_calcen: 0.5 (esolb+esolc) (Hartrees) =   -0.597097

 Solvation energy (screening term,uncorrected) =   -374.683823 kcal/mol

 Solvation energy (dispersion and cavitation terms) =      1.176367 kcal/mol
 Solvation Energy Contributions (Hartrees)
          esola   esolb+esolc
     0.59709662   -1.19419323
 esol last cycle   -0.59709662

 Energy gradients wrt nuclear displacements
 ==========================================

     Atom      Cartesian (a.u./angstrom)
                 X         Y         Z
 ----------------------------------------
     1 Pa    0.029582 -0.027085 -0.015272
     2 Cl   -0.003790 -0.000870  0.000101
     3 Cl   -0.002052  0.001884 -0.001868
     4 Cl   -0.001484  0.000742  0.000276
     5 Cl    0.001091  0.000680  0.002038
     6 Cl    0.001413  0.001078  0.002526
     7 O    -0.022678  0.022862  0.013486
     8 Cl   -0.002081  0.000710 -0.001287
 ----------------------------------------
 Mulliken charges used for AMS results%charges...

 dE(predicted):    -0.15790E-01, dE(actual):    -0.45760E-02, Trust radius:    0.600000, all in a.u.
 
----------------------------------------------------------------------
Geometry Convergence after Step   6       (Hartree/Angstrom,Angstrom)
----------------------------------------------------------------------
current energy                               -2.43251594 Hartree
energy change                      -0.00457597     0.00000800    F
constrained gradient max            0.02958183     0.00010000    F
constrained gradient rms            0.01138683     0.00006667    F
gradient max                        0.02958183
gradient rms                        0.01138683
cart. step max                      0.03210273     0.00100000    F
cart. step rms                      0.01422441     0.00066667    F
 
 
--------
Geometry
--------
Formula: Cl6OPa
Atoms
  Index Symbol   x (angstrom)   y (angstrom)   z (angstrom)
      1     Pa    -0.35518047    -0.78884261     0.33935220       adf.R=2.200
      2     Cl     1.20383687     1.33958800    -0.48579344       adf.R=1.725
      3     Cl    -0.78374371    -2.57589764     2.41426978       adf.R=1.725
      4     Cl     1.56693355    -0.33363578     2.28209555       adf.R=1.725
      5     Cl    -2.34986611    -2.54886004    -0.43693873       adf.R=1.725
      6     Cl    -1.16310477    -0.10410717    -2.21461568       adf.R=1.725
      7      O    -1.56100236     0.37750947     1.09538705       adf.R=1.517
      8     Cl     1.35119244    -2.45818036    -0.76769675       adf.R=1.725
 
Total System Charge            -3.00000
Bonding info available!
 
 *** GO1_GOStep7 ***

 SOLVATION
-------------------------------------------

  The Delley construction of COSMO surface surface is calculated

       Division Level for Surface Triangles (NDIV)                  3
       Final Division Level for Triangles (NFDIV)                   1
       Radius of the Solvent (RSOL)                           1.93000 angstr
  Dielectric Constant (EPSL)                                 78.39000

       COSMO equation is solved iteratively-               conjugate-gradient

       Maximun of Iterations for Charges (NCIX)                  1000
       Criterion for Charge convergence (CCNV)                1.0E-08

  COSMO charges included variationally in SCF

       COSMO included at every SCF cycle

  Geometry-dependent empirical factor                         0.00000

  C-Matrix calculated in cspmtx

  In cspmtx, C-Matrix calculated using fitted potential

-------------------------------------------



 -------------------------------------------
  COSMO surface
  Area             =          626.671
  Volume           =         1155.495
  Number of Points =         1365
 -------------------------------------------



 ======================
 RI Hartree-Fock Scheme
 ======================
  
 Fit Set Quality     : GOOD
 Threshold Quality   : GOOD
 Integration Quality : GOOD
 Fit Generation Method : AUTO
 Response Quality    : DEFAULT
 Is Range Separated  :  F
 
 RIHartreeFock Dependency: number of modified vectors:           6
 cosmo_calcen: 0.5 (esolb+esolc) (Hartrees) =   -0.597053

 Solvation energy (screening term,uncorrected) =   -374.656691 kcal/mol

 Solvation energy (dispersion and cavitation terms) =      1.171826 kcal/mol
 Solvation Energy Contributions (Hartrees)
          esola   esolb+esolc
     0.59705338   -1.19410676
 esol last cycle   -0.59705338
  
 Hartree-Fock exchange energy:   -641.374521879880     
 cosmo_calcen: 0.5 (esolb+esolc) (Hartrees) =   -0.597053

 Solvation energy (screening term,uncorrected) =   -374.656683 kcal/mol

 Solvation energy (dispersion and cavitation terms) =      1.171826 kcal/mol
 Solvation Energy Contributions (Hartrees)
          esola   esolb+esolc
     0.59705337   -1.19410673
 esol last cycle   -0.59705337

 Energy gradients wrt nuclear displacements
 ==========================================

     Atom      Cartesian (a.u./angstrom)
                 X         Y         Z
 ----------------------------------------
     1 Pa    0.011739 -0.010196 -0.005926
     2 Cl   -0.002430 -0.002633  0.001946
     3 Cl    0.000165  0.002791 -0.002496
     4 Cl   -0.002638 -0.000475 -0.002499
     5 Cl    0.002780  0.002488  0.000372
     6 Cl    0.000594 -0.001733  0.003670
     7 O    -0.006970  0.007146  0.004089
     8 Cl   -0.003240  0.002612  0.000844
 ----------------------------------------
 Mulliken charges used for AMS results%charges...

 dE(predicted):    -0.50793E-03, dE(actual):    -0.54072E-03, Trust radius:    0.600000, all in a.u.
 
----------------------------------------------------------------------
Geometry Convergence after Step   7       (Hartree/Angstrom,Angstrom)
----------------------------------------------------------------------
current energy                               -2.43305667 Hartree
energy change                      -0.00054072     0.00000800    F
constrained gradient max            0.01173885     0.00010000    F
constrained gradient rms            0.00450103     0.00006667    F
gradient max                        0.01173885
gradient rms                        0.00450103
cart. step max                      0.01478552     0.00100000    F
cart. step rms                      0.00633584     0.00066667    F
 
 
--------
Geometry
--------
Formula: Cl6OPa
Atoms
  Index Symbol   x (angstrom)   y (angstrom)   z (angstrom)
      1     Pa    -0.36210619    -0.78383243     0.33976267       adf.R=2.200
      2     Cl     1.21046158     1.33309757    -0.49669102       adf.R=1.725
      3     Cl    -0.77453498    -2.58722280     2.40639835       adf.R=1.725
      4     Cl     1.56306035    -0.33022193     2.28247446       adf.R=1.725
      5     Cl    -2.35601447    -2.54879406    -0.43377317       adf.R=1.725
      6     Cl    -1.16229252    -0.09560112    -2.21808594       adf.R=1.725
      7      O    -1.56307886     0.37573245     1.09888585       adf.R=1.517
      8     Cl     1.35357052    -2.45558380    -0.75291124       adf.R=1.725
 
Total System Charge            -3.00000
Bonding info available!
 
 *** GO1_GOStep8 ***

 SOLVATION
-------------------------------------------

  The Delley construction of COSMO surface surface is calculated

       Division Level for Surface Triangles (NDIV)                  3
       Final Division Level for Triangles (NFDIV)                   1
       Radius of the Solvent (RSOL)                           1.93000 angstr
  Dielectric Constant (EPSL)                                 78.39000

       COSMO equation is solved iteratively-               conjugate-gradient

       Maximun of Iterations for Charges (NCIX)                  1000
       Criterion for Charge convergence (CCNV)                1.0E-08

  COSMO charges included variationally in SCF

       COSMO included at every SCF cycle

  Geometry-dependent empirical factor                         0.00000

  C-Matrix calculated in cspmtx

  In cspmtx, C-Matrix calculated using fitted potential

-------------------------------------------



 -------------------------------------------
  COSMO surface
  Area             =          627.519
  Volume           =         1157.080
  Number of Points =         1367
 -------------------------------------------



 ======================
 RI Hartree-Fock Scheme
 ======================
  
 Fit Set Quality     : GOOD
 Threshold Quality   : GOOD
 Integration Quality : GOOD
 Fit Generation Method : AUTO
 Response Quality    : DEFAULT
 Is Range Separated  :  F
 
 RIHartreeFock Dependency: number of modified vectors:           6
 cosmo_calcen: 0.5 (esolb+esolc) (Hartrees) =   -0.596762

 Solvation energy (screening term,uncorrected) =   -374.473750 kcal/mol

 Solvation energy (dispersion and cavitation terms) =      1.173412 kcal/mol
 Solvation Energy Contributions (Hartrees)
          esola   esolb+esolc
     0.59676184   -1.19352369
 esol last cycle   -0.59676184
  
 Hartree-Fock exchange energy:   -641.377929915455     
 cosmo_calcen: 0.5 (esolb+esolc) (Hartrees) =   -0.596762

 Solvation energy (screening term,uncorrected) =   -374.473765 kcal/mol

 Solvation energy (dispersion and cavitation terms) =      1.173412 kcal/mol
 Solvation Energy Contributions (Hartrees)
          esola   esolb+esolc
     0.59676187   -1.19352374
 esol last cycle   -0.59676187

 Energy gradients wrt nuclear displacements
 ==========================================

     Atom      Cartesian (a.u./angstrom)
                 X         Y         Z
 ----------------------------------------
     1 Pa    0.004888 -0.003900 -0.002471
     2 Cl   -0.002261 -0.002728  0.001308
     3 Cl    0.000351  0.002444 -0.002678
     4 Cl   -0.002268 -0.000918 -0.002536
     5 Cl    0.002620  0.001767  0.000889
     6 Cl    0.001196 -0.000982  0.003174
     7 O    -0.001763  0.001830  0.000987
     8 Cl   -0.002763  0.002488  0.001326
 ----------------------------------------
 Mulliken charges used for AMS results%charges...

 dE(predicted):    -0.86869E-04, dE(actual):    -0.12582E-03, Trust radius:    0.600000, all in a.u.
 
----------------------------------------------------------------------
Geometry Convergence after Step   8       (Hartree/Angstrom,Angstrom)
----------------------------------------------------------------------
current energy                               -2.43318249 Hartree
energy change                      -0.00012582     0.00000800    F
constrained gradient max            0.00488855     0.00010000    F
constrained gradient rms            0.00233993     0.00006667    F
gradient max                        0.00488855
gradient rms                        0.00233993
cart. step max                      0.01381355     0.00100000    F
cart. step rms                      0.00748256     0.00066667    F
 
 
--------
Geometry
--------
Formula: Cl6OPa
Atoms
  Index Symbol   x (angstrom)   y (angstrom)   z (angstrom)
      1     Pa    -0.36712008    -0.78094538     0.33924771       adf.R=2.200
      2     Cl     1.22214671     1.32742822    -0.50739202       adf.R=1.725
      3     Cl    -0.76364793    -2.60103636     2.40211621       adf.R=1.725
      4     Cl     1.55801439    -0.32007832     2.28801337       adf.R=1.725
      5     Cl    -2.36757555    -2.54603701    -0.43600730       adf.R=1.725
      6     Cl    -1.16937542    -0.08704566    -2.22269665       adf.R=1.725
      7      O    -1.56439388     0.37273499     1.10290698       adf.R=1.517
      8     Cl     1.36101719    -2.45744660    -0.74012833       adf.R=1.725
 
Total System Charge            -3.00000
Bonding info available!
 
 *** GO1_GOStep9 ***

 SOLVATION
-------------------------------------------

  The Delley construction of COSMO surface surface is calculated

       Division Level for Surface Triangles (NDIV)                  3
       Final Division Level for Triangles (NFDIV)                   1
       Radius of the Solvent (RSOL)                           1.93000 angstr
  Dielectric Constant (EPSL)                                 78.39000

       COSMO equation is solved iteratively-               conjugate-gradient

       Maximun of Iterations for Charges (NCIX)                  1000
       Criterion for Charge convergence (CCNV)                1.0E-08

  COSMO charges included variationally in SCF

       COSMO included at every SCF cycle

  Geometry-dependent empirical factor                         0.00000

  C-Matrix calculated in cspmtx

  In cspmtx, C-Matrix calculated using fitted potential

-------------------------------------------



 -------------------------------------------
  COSMO surface
  Area             =          628.649
  Volume           =         1159.036
  Number of Points =         1368
 -------------------------------------------



 ======================
 RI Hartree-Fock Scheme
 ======================
  
 Fit Set Quality     : GOOD
 Threshold Quality   : GOOD
 Integration Quality : GOOD
 Fit Generation Method : AUTO
 Response Quality    : DEFAULT
 Is Range Separated  :  F
 
 RIHartreeFock Dependency: number of modified vectors:           6
 cosmo_calcen: 0.5 (esolb+esolc) (Hartrees) =   -0.596102

 Solvation energy (screening term,uncorrected) =   -374.059934 kcal/mol

 Solvation energy (dispersion and cavitation terms) =      1.175525 kcal/mol
 Solvation Energy Contributions (Hartrees)
          esola   esolb+esolc
     0.59610239   -1.19220477
 esol last cycle   -0.59610239
  
 Hartree-Fock exchange energy:   -641.375653828175     
 cosmo_calcen: 0.5 (esolb+esolc) (Hartrees) =   -0.596102

 Solvation energy (screening term,uncorrected) =   -374.059934 kcal/mol

 Solvation energy (dispersion and cavitation terms) =      1.175525 kcal/mol
 Solvation Energy Contributions (Hartrees)
          esola   esolb+esolc
     0.59610239   -1.19220477
 esol last cycle   -0.59610239

 Energy gradients wrt nuclear displacements
 ==========================================

     Atom      Cartesian (a.u./angstrom)
                 X         Y         Z
 ----------------------------------------
     1 Pa   -0.000125  0.000622 -0.000083
     2 Cl   -0.001213 -0.001784  0.000778
     3 Cl    0.000472  0.001470 -0.001550
     4 Cl   -0.001223 -0.000907 -0.001844
     5 Cl    0.001459  0.000868  0.000415
     6 Cl    0.000817 -0.000437  0.001749
     7 O     0.001021 -0.001160 -0.000599
     8 Cl   -0.001208  0.001327  0.001133
 ----------------------------------------
 Mulliken charges used for AMS results%charges...

 dE(predicted):    -0.78522E-04, dE(actual):    -0.11733E-03, Trust radius:    0.600000, all in a.u.
 
----------------------------------------------------------------------
Geometry Convergence after Step   9       (Hartree/Angstrom,Angstrom)
----------------------------------------------------------------------
current energy                               -2.43329982 Hartree
energy change                      -0.00011733     0.00000800    F
constrained gradient max            0.00186487     0.00010000    F
constrained gradient rms            0.00112514     0.00006667    F
gradient max                        0.00186487
gradient rms                        0.00112514
cart. step max                      0.01268799     0.00100000    F
cart. step rms                      0.00603581     0.00066667    F
 
 
--------
Geometry
--------
Formula: Cl6OPa
Atoms
  Index Symbol   x (angstrom)   y (angstrom)   z (angstrom)
      1     Pa    -0.36731329    -0.78117780     0.33888069       adf.R=2.200
      2     Cl     1.23186860     1.32459668    -0.51550992       adf.R=1.725
      3     Cl    -0.75801748    -2.61267668     2.40060029       adf.R=1.725
      4     Cl     1.55202138    -0.30739033     2.29831535       adf.R=1.725
      5     Cl    -2.37678154    -2.54442679    -0.43590447       adf.R=1.725
      6     Cl    -1.17567731    -0.08049276    -2.22543578       adf.R=1.725
      7      O    -1.56358360     0.37082608     1.10424842       adf.R=1.517
      8     Cl     1.36654867    -2.46168451    -0.73913460       adf.R=1.725
 
Total System Charge            -3.00000
Bonding info available!
 
 *** GO1_GOStep10 ***

 SOLVATION
-------------------------------------------

  The Delley construction of COSMO surface surface is calculated

       Division Level for Surface Triangles (NDIV)                  3
       Final Division Level for Triangles (NFDIV)                   1
       Radius of the Solvent (RSOL)                           1.93000 angstr
  Dielectric Constant (EPSL)                                 78.39000

       COSMO equation is solved iteratively-               conjugate-gradient

       Maximun of Iterations for Charges (NCIX)                  1000
       Criterion for Charge convergence (CCNV)                1.0E-08

  COSMO charges included variationally in SCF

       COSMO included at every SCF cycle

  Geometry-dependent empirical factor                         0.00000

  C-Matrix calculated in cspmtx

  In cspmtx, C-Matrix calculated using fitted potential

-------------------------------------------



 -------------------------------------------
  COSMO surface
  Area             =          629.382
  Volume           =         1160.348
  Number of Points =         1371
 -------------------------------------------



 ======================
 RI Hartree-Fock Scheme
 ======================
  
 Fit Set Quality     : GOOD
 Threshold Quality   : GOOD
 Integration Quality : GOOD
 Fit Generation Method : AUTO
 Response Quality    : DEFAULT
 Is Range Separated  :  F
 
 RIHartreeFock Dependency: number of modified vectors:           6
 cosmo_calcen: 0.5 (esolb+esolc) (Hartrees) =   -0.595483

 Solvation energy (screening term,uncorrected) =   -373.671186 kcal/mol

 Solvation energy (dispersion and cavitation terms) =      1.176896 kcal/mol
 Solvation Energy Contributions (Hartrees)
          esola   esolb+esolc
     0.59548288   -1.19096575
 esol last cycle   -0.59548288
  
 Hartree-Fock exchange energy:   -641.370479636016     
 cosmo_calcen: 0.5 (esolb+esolc) (Hartrees) =   -0.595483

 Solvation energy (screening term,uncorrected) =   -373.671188 kcal/mol

 Solvation energy (dispersion and cavitation terms) =      1.176896 kcal/mol
 Solvation Energy Contributions (Hartrees)
          esola   esolb+esolc
     0.59548288   -1.19096576
 esol last cycle   -0.59548288

 Energy gradients wrt nuclear displacements
 ==========================================

     Atom      Cartesian (a.u./angstrom)
                 X         Y         Z
 ----------------------------------------
     1 Pa   -0.001305  0.001567  0.000471
     2 Cl   -0.000314 -0.000527  0.000219
     3 Cl    0.000134  0.000396 -0.000370
     4 Cl   -0.000131 -0.000473 -0.000693
     5 Cl    0.000261 -0.000019  0.000064
     6 Cl    0.000327  0.000103  0.000335
     7 O     0.000805 -0.001037 -0.000402
     8 Cl    0.000223 -0.000010  0.000377
 ----------------------------------------
 Mulliken charges used for AMS results%charges...

 dE(predicted):    -0.41207E-04, dE(actual):    -0.67884E-04, Trust radius:    0.600000, all in a.u.
 
----------------------------------------------------------------------
Geometry Convergence after Step  10       (Hartree/Angstrom,Angstrom)
----------------------------------------------------------------------
current energy                               -2.43336770 Hartree
energy change                      -0.00006788     0.00000800    F
constrained gradient max            0.00156823     0.00010000    F
constrained gradient rms            0.00058484     0.00006667    F
gradient max                        0.00156823
gradient rms                        0.00058484
cart. step max                      0.00724217     0.00100000    F
cart. step rms                      0.00315491     0.00066667    F
 
 
--------
Geometry
--------
Formula: Cl6OPa
Atoms
  Index Symbol   x (angstrom)   y (angstrom)   z (angstrom)
      1     Pa    -0.36559333    -0.78235473     0.33898612       adf.R=2.200
      2     Cl     1.23586766     1.32348826    -0.51761369       adf.R=1.725
      3     Cl    -0.75523826    -2.61781116     2.39996800       adf.R=1.725
      4     Cl     1.54720252    -0.30040451     2.30555751       adf.R=1.725
      5     Cl    -2.38065032    -2.54218522    -0.43457779       adf.R=1.725
      6     Cl    -1.17781640    -0.08060344    -2.22573431       adf.R=1.725
      7      O    -1.56205580     0.37065524     1.10319725       adf.R=1.517
      8     Cl     1.36734938    -2.46321057    -0.74372313       adf.R=1.725
 
Total System Charge            -3.00000
Bonding info available!
 
 *** GO1_GOStep11 ***

 SOLVATION
-------------------------------------------

  The Delley construction of COSMO surface surface is calculated

       Division Level for Surface Triangles (NDIV)                  3
       Final Division Level for Triangles (NFDIV)                   1
       Radius of the Solvent (RSOL)                           1.93000 angstr
  Dielectric Constant (EPSL)                                 78.39000

       COSMO equation is solved iteratively-               conjugate-gradient

       Maximun of Iterations for Charges (NCIX)                  1000
       Criterion for Charge convergence (CCNV)                1.0E-08

  COSMO charges included variationally in SCF

       COSMO included at every SCF cycle

  Geometry-dependent empirical factor                         0.00000

  C-Matrix calculated in cspmtx

  In cspmtx, C-Matrix calculated using fitted potential

-------------------------------------------



 -------------------------------------------
  COSMO surface
  Area             =          630.189
  Volume           =         1161.268
  Number of Points =         1374
 -------------------------------------------



 ======================
 RI Hartree-Fock Scheme
 ======================
  
 Fit Set Quality     : GOOD
 Threshold Quality   : GOOD
 Integration Quality : GOOD
 Fit Generation Method : AUTO
 Response Quality    : DEFAULT
 Is Range Separated  :  F
 
 RIHartreeFock Dependency: number of modified vectors:           6
 cosmo_calcen: 0.5 (esolb+esolc) (Hartrees) =   -0.595313

 Solvation energy (screening term,uncorrected) =   -373.564586 kcal/mol

 Solvation energy (dispersion and cavitation terms) =      1.178405 kcal/mol
 Solvation Energy Contributions (Hartrees)
          esola   esolb+esolc
     0.59531300   -1.19062600
 esol last cycle   -0.59531300
  
 Hartree-Fock exchange energy:   -641.368310249692     
 cosmo_calcen: 0.5 (esolb+esolc) (Hartrees) =   -0.595313

 Solvation energy (screening term,uncorrected) =   -373.564580 kcal/mol

 Solvation energy (dispersion and cavitation terms) =      1.178405 kcal/mol
 Solvation Energy Contributions (Hartrees)
          esola   esolb+esolc
     0.59531299   -1.19062598
 esol last cycle   -0.59531299

 Energy gradients wrt nuclear displacements
 ==========================================

     Atom      Cartesian (a.u./angstrom)
                 X         Y         Z
 ----------------------------------------
     1 Pa   -0.000719  0.001032  0.000301
     2 Cl   -0.000039 -0.000009  0.000068
     3 Cl   -0.000057  0.000047  0.000080
     4 Cl    0.000156 -0.000233 -0.000155
     5 Cl   -0.000105 -0.000193 -0.000112
     6 Cl    0.000046  0.000140 -0.000065
     7 O     0.000179 -0.000362 -0.000044
     8 Cl    0.000539 -0.000423 -0.000072
 ----------------------------------------
 Mulliken charges used for AMS results%charges...

 dE(predicted):    -0.78986E-05, dE(actual):    -0.26999E-04, Trust radius:    0.600000, all in a.u.
 
----------------------------------------------------------------------
Geometry Convergence after Step  11       (Hartree/Angstrom,Angstrom)
----------------------------------------------------------------------
current energy                               -2.43339470 Hartree
energy change                      -0.00002700     0.00000800    F
constrained gradient max            0.00103312     0.00010000    F
constrained gradient rms            0.00032337     0.00006667    F
gradient max                        0.00103312
gradient rms                        0.00032337
cart. step max                      0.00595832     0.00100000    F
cart. step rms                      0.00296081     0.00066667    F
 
 
--------
Geometry
--------
Formula: Cl6OPa
Atoms
  Index Symbol   x (angstrom)   y (angstrom)   z (angstrom)
      1     Pa    -0.36429104    -0.78330298     0.33918498       adf.R=2.200
      2     Cl     1.23874244     1.32168896    -0.51879541       adf.R=1.725
      3     Cl    -0.75148041    -2.62297163     2.39765163       adf.R=1.725
      4     Cl     1.54199829    -0.29444618     2.31128380       adf.R=1.725
      5     Cl    -2.38440479    -2.53886667    -0.43185875       adf.R=1.725
      6     Cl    -1.17793645    -0.08232416    -2.22582490       adf.R=1.725
      7      O    -1.56067926     0.37089318     1.10191131       adf.R=1.517
      8     Cl     1.36711666    -2.46309663    -0.74749270       adf.R=1.725
 
Total System Charge            -3.00000
Bonding info available!
 
 *** GO1_GOStep12 ***

 SOLVATION
-------------------------------------------

  The Delley construction of COSMO surface surface is calculated

       Division Level for Surface Triangles (NDIV)                  3
       Final Division Level for Triangles (NFDIV)                   1
       Radius of the Solvent (RSOL)                           1.93000 angstr
  Dielectric Constant (EPSL)                                 78.39000

       COSMO equation is solved iteratively-               conjugate-gradient

       Maximun of Iterations for Charges (NCIX)                  1000
       Criterion for Charge convergence (CCNV)                1.0E-08

  COSMO charges included variationally in SCF

       COSMO included at every SCF cycle

  Geometry-dependent empirical factor                         0.00000

  C-Matrix calculated in cspmtx

  In cspmtx, C-Matrix calculated using fitted potential

-------------------------------------------



 -------------------------------------------
  COSMO surface
  Area             =          630.758
  Volume           =         1162.416
  Number of Points =         1374
 -------------------------------------------



 ======================
 RI Hartree-Fock Scheme
 ======================
  
 Fit Set Quality     : GOOD
 Threshold Quality   : GOOD
 Integration Quality : GOOD
 Fit Generation Method : AUTO
 Response Quality    : DEFAULT
 Is Range Separated  :  F
 
 RIHartreeFock Dependency: number of modified vectors:           6
 cosmo_calcen: 0.5 (esolb+esolc) (Hartrees) =   -0.595289

 Solvation energy (screening term,uncorrected) =   -373.549589 kcal/mol

 Solvation energy (dispersion and cavitation terms) =      1.179468 kcal/mol
 Solvation Energy Contributions (Hartrees)
          esola   esolb+esolc
     0.59528910   -1.19057820
 esol last cycle   -0.59528910
  
 Hartree-Fock exchange energy:   -641.367758305208     
 cosmo_calcen: 0.5 (esolb+esolc) (Hartrees) =   -0.595289

 Solvation energy (screening term,uncorrected) =   -373.549586 kcal/mol

 Solvation energy (dispersion and cavitation terms) =      1.179468 kcal/mol
 Solvation Energy Contributions (Hartrees)
          esola   esolb+esolc
     0.59528909   -1.19057819
 esol last cycle   -0.59528909

 Energy gradients wrt nuclear displacements
 ==========================================

     Atom      Cartesian (a.u./angstrom)
                 X         Y         Z
 ----------------------------------------
     1 Pa   -0.000384  0.000648  0.000217
     2 Cl    0.000037  0.000174  0.000041
     3 Cl   -0.000178 -0.000083  0.000196
     4 Cl    0.000214 -0.000089  0.000068
     5 Cl   -0.000159 -0.000174 -0.000120
     6 Cl   -0.000073  0.000089 -0.000145
     7 O     0.000015 -0.000107  0.000008
     8 Cl    0.000527 -0.000459 -0.000264
 ----------------------------------------
 Mulliken charges used for AMS results%charges...

 dE(predicted):    -0.31131E-05, dE(actual):    -0.19564E-04, Trust radius:    0.600000, all in a.u.
 
----------------------------------------------------------------------
Geometry Convergence after Step  12       (Hartree/Angstrom,Angstrom)
----------------------------------------------------------------------
current energy                               -2.43341426 Hartree
energy change                      -0.00001956     0.00000800    F
constrained gradient max            0.00064879     0.00010000    F
constrained gradient rms            0.00024566     0.00006667    F
gradient max                        0.00064879
gradient rms                        0.00024566
cart. step max                      0.00773035     0.00100000    F
cart. step rms                      0.00424966     0.00066667    F
 
 
--------
Geometry
--------
Formula: Cl6OPa
Atoms
  Index Symbol   x (angstrom)   y (angstrom)   z (angstrom)
      1     Pa    -0.36330690    -0.78416997     0.33942641       adf.R=2.200
      2     Cl     1.24231791     1.31832609    -0.52071731       adf.R=1.725
      3     Cl    -0.74421691    -2.63069539     2.39307100       adf.R=1.725
      4     Cl     1.53426794    -0.28677423     2.31810303       adf.R=1.725
      5     Cl    -2.39023469    -2.53325303    -0.42770302       adf.R=1.725
      6     Cl    -1.17674792    -0.08494527    -2.22620062       adf.R=1.725
      7      O    -1.55938835     0.37125509     1.10061852       adf.R=1.517
      8     Cl     1.36637436    -2.46216940    -0.75053804       adf.R=1.725
 
Total System Charge            -3.00000
Bonding info available!
 
 *** GO1_GOStep13 ***

 SOLVATION
-------------------------------------------

  The Delley construction of COSMO surface surface is calculated

       Division Level for Surface Triangles (NDIV)                  3
       Final Division Level for Triangles (NFDIV)                   1
       Radius of the Solvent (RSOL)                           1.93000 angstr
  Dielectric Constant (EPSL)                                 78.39000

       COSMO equation is solved iteratively-               conjugate-gradient

       Maximun of Iterations for Charges (NCIX)                  1000
       Criterion for Charge convergence (CCNV)                1.0E-08

  COSMO charges included variationally in SCF

       COSMO included at every SCF cycle

  Geometry-dependent empirical factor                         0.00000

  C-Matrix calculated in cspmtx

  In cspmtx, C-Matrix calculated using fitted potential

-------------------------------------------



 -------------------------------------------
  COSMO surface
  Area             =          630.810
  Volume           =         1162.352
  Number of Points =         1376
 -------------------------------------------



 ======================
 RI Hartree-Fock Scheme
 ======================
  
 Fit Set Quality     : GOOD
 Threshold Quality   : GOOD
 Integration Quality : GOOD
 Fit Generation Method : AUTO
 Response Quality    : DEFAULT
 Is Range Separated  :  F
 
 RIHartreeFock Dependency: number of modified vectors:           6
 cosmo_calcen: 0.5 (esolb+esolc) (Hartrees) =   -0.595312

 Solvation energy (screening term,uncorrected) =   -373.563915 kcal/mol

 Solvation energy (dispersion and cavitation terms) =      1.179566 kcal/mol
 Solvation Energy Contributions (Hartrees)
          esola   esolb+esolc
     0.59531193   -1.19062386
 esol last cycle   -0.59531193
  
 Hartree-Fock exchange energy:   -641.367920956226     
 cosmo_calcen: 0.5 (esolb+esolc) (Hartrees) =   -0.595312

 Solvation energy (screening term,uncorrected) =   -373.563910 kcal/mol

 Solvation energy (dispersion and cavitation terms) =      1.179566 kcal/mol
 Solvation Energy Contributions (Hartrees)
          esola   esolb+esolc
     0.59531192   -1.19062384
 esol last cycle   -0.59531192

 Energy gradients wrt nuclear displacements
 ==========================================

     Atom      Cartesian (a.u./angstrom)
                 X         Y         Z
 ----------------------------------------
     1 Pa   -0.000189  0.000387  0.000233
     2 Cl    0.000032  0.000222  0.000020
     3 Cl   -0.000199 -0.000164  0.000197
     4 Cl    0.000148 -0.000025  0.000183
     5 Cl   -0.000140 -0.000042 -0.000098
     6 Cl   -0.000107  0.000015 -0.000099
     7 O     0.000097 -0.000076 -0.000098
     8 Cl    0.000357 -0.000317 -0.000338
 ----------------------------------------
 Mulliken charges used for AMS results%charges...

 dE(predicted):    -0.28368E-05, dE(actual):    -0.94560E-05, Trust radius:    0.600000, all in a.u.
 
----------------------------------------------------------------------
Geometry Convergence after Step  13       (Hartree/Angstrom,Angstrom)
----------------------------------------------------------------------
current energy                               -2.43342372 Hartree
energy change                      -0.00000946     0.00000800    F
constrained gradient max            0.00038788     0.00010000    F
constrained gradient rms            0.00018910     0.00006667    F
gradient max                        0.00038788
gradient rms                        0.00018910
cart. step max                      0.00481944     0.00100000    F
cart. step rms                      0.00229611     0.00066667    F
 
 
--------
Geometry
--------
Formula: Cl6OPa
Atoms
  Index Symbol   x (angstrom)   y (angstrom)   z (angstrom)
      1     Pa    -0.36342146    -0.78426946     0.33945550       adf.R=2.200
      2     Cl     1.24438055     1.31577389    -0.52186807       adf.R=1.725
      3     Cl    -0.73939747    -2.63485948     2.38985813       adf.R=1.725
      4     Cl     1.53008109    -0.28286913     2.32065843       adf.R=1.725
      5     Cl    -2.39311278    -2.53042395    -0.42554350       adf.R=1.725
      6     Cl    -1.17563246    -0.08574902    -2.22645319       adf.R=1.725
      7      O    -1.55931838     0.37146340     1.10049082       adf.R=1.517
      8     Cl     1.36548636    -2.46149238    -0.75053815       adf.R=1.725
 
Total System Charge            -3.00000
Bonding info available!
 
 *** GO1_GOStep14 ***

 SOLVATION
-------------------------------------------

  The Delley construction of COSMO surface surface is calculated

       Division Level for Surface Triangles (NDIV)                  3
       Final Division Level for Triangles (NFDIV)                   1
       Radius of the Solvent (RSOL)                           1.93000 angstr
  Dielectric Constant (EPSL)                                 78.39000

       COSMO equation is solved iteratively-               conjugate-gradient

       Maximun of Iterations for Charges (NCIX)                  1000
       Criterion for Charge convergence (CCNV)                1.0E-08

  COSMO charges included variationally in SCF

       COSMO included at every SCF cycle

  Geometry-dependent empirical factor                         0.00000

  C-Matrix calculated in cspmtx

  In cspmtx, C-Matrix calculated using fitted potential

-------------------------------------------



 -------------------------------------------
  COSMO surface
  Area             =          630.710
  Volume           =         1162.173
  Number of Points =         1376
 -------------------------------------------



 ======================
 RI Hartree-Fock Scheme
 ======================
  
 Fit Set Quality     : GOOD
 Threshold Quality   : GOOD
 Integration Quality : GOOD
 Fit Generation Method : AUTO
 Response Quality    : DEFAULT
 Is Range Separated  :  F
 
 RIHartreeFock Dependency: number of modified vectors:           6
 cosmo_calcen: 0.5 (esolb+esolc) (Hartrees) =   -0.595365

 Solvation energy (screening term,uncorrected) =   -373.597405 kcal/mol

 Solvation energy (dispersion and cavitation terms) =      1.179379 kcal/mol
 Solvation Energy Contributions (Hartrees)
          esola   esolb+esolc
     0.59536530   -1.19073060
 esol last cycle   -0.59536530
  
 Hartree-Fock exchange energy:   -641.368395810259     
 cosmo_calcen: 0.5 (esolb+esolc) (Hartrees) =   -0.595365

 Solvation energy (screening term,uncorrected) =   -373.597409 kcal/mol

 Solvation energy (dispersion and cavitation terms) =      1.179379 kcal/mol
 Solvation Energy Contributions (Hartrees)
          esola   esolb+esolc
     0.59536531   -1.19073061
 esol last cycle   -0.59536531

 Energy gradients wrt nuclear displacements
 ==========================================

     Atom      Cartesian (a.u./angstrom)
                 X         Y         Z
 ----------------------------------------
     1 Pa   -0.000156  0.000274  0.000195
     2 Cl   -0.000015  0.000131  0.000042
     3 Cl   -0.000124 -0.000112  0.000095
     4 Cl    0.000057 -0.000034  0.000119
     5 Cl   -0.000081  0.000006 -0.000035
     6 Cl   -0.000041  0.000001 -0.000019
     7 O     0.000191 -0.000126 -0.000154
     8 Cl    0.000169 -0.000141 -0.000243
 ----------------------------------------
 Mulliken charges used for AMS results%charges...

 dE(predicted):    -0.11241E-05, dE(actual):    -0.27000E-05, Trust radius:    0.600000, all in a.u.
 
----------------------------------------------------------------------
Geometry Convergence after Step  14       (Hartree/Angstrom,Angstrom)
----------------------------------------------------------------------
current energy                               -2.43342642 Hartree
energy change                      -0.00000270     0.00000800    T
constrained gradient max            0.00027491     0.00010000    F
constrained gradient rms            0.00012801     0.00006667    F
gradient max                        0.00027491
gradient rms                        0.00012801
cart. step max                      0.00433479     0.00100000    F
cart. step rms                      0.00192143     0.00066667    F
 
 
--------
Geometry
--------
Formula: Cl6OPa
Atoms
  Index Symbol   x (angstrom)   y (angstrom)   z (angstrom)
      1     Pa    -0.36397620    -0.78401998     0.33941093       adf.R=2.200
      2     Cl     1.24659883     1.31303538    -0.52329309       adf.R=1.725
      3     Cl    -0.73506268    -2.63821650     2.38693411       adf.R=1.725
      4     Cl     1.52685739    -0.27961428     2.32202535       adf.R=1.725
      5     Cl    -2.39500511    -2.52851008    -0.42454195       adf.R=1.725
      6     Cl    -1.17518889    -0.08545613    -2.22655635       adf.R=1.725
      7      O    -1.55981816     0.37150517     1.10107442       adf.R=1.517
      8     Cl     1.36466027    -2.46114970    -0.74899345       adf.R=1.725
 
Total System Charge            -3.00000
Bonding info available!
 
 *** GO1_GOStep15 ***

 SOLVATION
-------------------------------------------

  The Delley construction of COSMO surface surface is calculated

       Division Level for Surface Triangles (NDIV)                  3
       Final Division Level for Triangles (NFDIV)                   1
       Radius of the Solvent (RSOL)                           1.93000 angstr
  Dielectric Constant (EPSL)                                 78.39000

       COSMO equation is solved iteratively-               conjugate-gradient

       Maximun of Iterations for Charges (NCIX)                  1000
       Criterion for Charge convergence (CCNV)                1.0E-08

  COSMO charges included variationally in SCF

       COSMO included at every SCF cycle

  Geometry-dependent empirical factor                         0.00000

  C-Matrix calculated in cspmtx

  In cspmtx, C-Matrix calculated using fitted potential

-------------------------------------------



 -------------------------------------------
  COSMO surface
  Area             =          630.615
  Volume           =         1162.017
  Number of Points =         1375
 -------------------------------------------



 ======================
 RI Hartree-Fock Scheme
 ======================
  
 Fit Set Quality     : GOOD
 Threshold Quality   : GOOD
 Integration Quality : GOOD
 Fit Generation Method : AUTO
 Response Quality    : DEFAULT
 Is Range Separated  :  F
 
 RIHartreeFock Dependency: number of modified vectors:           6
 cosmo_calcen: 0.5 (esolb+esolc) (Hartrees) =   -0.595412

 Solvation energy (screening term,uncorrected) =   -373.626779 kcal/mol

 Solvation energy (dispersion and cavitation terms) =      1.179202 kcal/mol
 Solvation Energy Contributions (Hartrees)
          esola   esolb+esolc
     0.59541211   -1.19082422
 esol last cycle   -0.59541211
  
 Hartree-Fock exchange energy:   -641.368774316571     
 cosmo_calcen: 0.5 (esolb+esolc) (Hartrees) =   -0.595412

 Solvation energy (screening term,uncorrected) =   -373.626783 kcal/mol

 Solvation energy (dispersion and cavitation terms) =      1.179202 kcal/mol
 Solvation Energy Contributions (Hartrees)
          esola   esolb+esolc
     0.59541212   -1.19082423
 esol last cycle   -0.59541212

 Energy gradients wrt nuclear displacements
 ==========================================

     Atom      Cartesian (a.u./angstrom)
                 X         Y         Z
 ----------------------------------------
     1 Pa   -0.000136  0.000186  0.000106
     2 Cl   -0.000037  0.000026  0.000067
     3 Cl   -0.000045 -0.000071  0.000006
     4 Cl   -0.000007 -0.000054  0.000013
     5 Cl   -0.000010  0.000036 -0.000008
     6 Cl    0.000027  0.000006  0.000036
     7 O     0.000200 -0.000137 -0.000129
     8 Cl    0.000008  0.000009 -0.000092
 ----------------------------------------
 Mulliken charges used for AMS results%charges...

 dE(predicted):    -0.75634E-06, dE(actual):     0.11600E-05, Trust radius:    0.020000, all in a.u.
 
----------------------------------------------------------------------
Geometry Convergence after Step  15       (Hartree/Angstrom,Angstrom)
----------------------------------------------------------------------
current energy                               -2.43342526 Hartree
energy change                       0.00000116     0.00000800    T
constrained gradient max            0.00019533     0.00010000    F
constrained gradient rms            0.00008087     0.00006667    F
gradient max                        0.00019533
gradient rms                        0.00008087
cart. step max                      0.00228363     0.00100000    F
cart. step rms                      0.00110279     0.00066667    F
 
 
--------
Geometry
--------
Formula: Cl6OPa
Atoms
  Index Symbol   x (angstrom)   y (angstrom)   z (angstrom)
      1     Pa    -0.36428579    -0.78383724     0.33934197       adf.R=2.200
      2     Cl     1.24825408     1.31130496    -0.52449053       adf.R=1.725
      3     Cl    -0.73277905    -2.63994455     2.38548710       adf.R=1.725
      4     Cl     1.52509322    -0.27764083     2.32290079       adf.R=1.725
      5     Cl    -2.39577743    -2.52779124    -0.42445233       adf.R=1.725
      6     Cl    -1.17558412    -0.08462879    -2.22646724       adf.R=1.725
      7      O    -1.56023002     0.37137233     1.10159625       adf.R=1.517
      8     Cl     1.36437455    -2.46126078    -0.74785603       adf.R=1.725
 
Total System Charge            -3.00000
Bonding info available!
 
 *** GO1_GOStep16 ***

 SOLVATION
-------------------------------------------

  The Delley construction of COSMO surface surface is calculated

       Division Level for Surface Triangles (NDIV)                  3
       Final Division Level for Triangles (NFDIV)                   1
       Radius of the Solvent (RSOL)                           1.93000 angstr
  Dielectric Constant (EPSL)                                 78.39000

       COSMO equation is solved iteratively-               conjugate-gradient

       Maximun of Iterations for Charges (NCIX)                  1000
       Criterion for Charge convergence (CCNV)                1.0E-08

  COSMO charges included variationally in SCF

       COSMO included at every SCF cycle

  Geometry-dependent empirical factor                         0.00000

  C-Matrix calculated in cspmtx

  In cspmtx, C-Matrix calculated using fitted potential

-------------------------------------------



 -------------------------------------------
  COSMO surface
  Area             =          630.678
  Volume           =         1162.070
  Number of Points =         1376
 -------------------------------------------



 ======================
 RI Hartree-Fock Scheme
 ======================
  
 Fit Set Quality     : GOOD
 Threshold Quality   : GOOD
 Integration Quality : GOOD
 Fit Generation Method : AUTO
 Response Quality    : DEFAULT
 Is Range Separated  :  F
 
 RIHartreeFock Dependency: number of modified vectors:           6
 cosmo_calcen: 0.5 (esolb+esolc) (Hartrees) =   -0.595424

 Solvation energy (screening term,uncorrected) =   -373.634285 kcal/mol

 Solvation energy (dispersion and cavitation terms) =      1.179319 kcal/mol
 Solvation Energy Contributions (Hartrees)
          esola   esolb+esolc
     0.59542407   -1.19084814
 esol last cycle   -0.59542407
  
 Hartree-Fock exchange energy:   -641.368756561565     
 cosmo_calcen: 0.5 (esolb+esolc) (Hartrees) =   -0.595424

 Solvation energy (screening term,uncorrected) =   -373.634282 kcal/mol

 Solvation energy (dispersion and cavitation terms) =      1.179319 kcal/mol
 Solvation Energy Contributions (Hartrees)
          esola   esolb+esolc
     0.59542407   -1.19084813
 esol last cycle   -0.59542407

 Energy gradients wrt nuclear displacements
 ==========================================

     Atom      Cartesian (a.u./angstrom)
                 X         Y         Z
 ----------------------------------------
     1 Pa   -0.000070  0.000093  0.000032
     2 Cl   -0.000018  0.000009  0.000058
     3 Cl    0.000000 -0.000064 -0.000013
     4 Cl   -0.000020 -0.000061 -0.000011
     5 Cl   -0.000011  0.000031 -0.000017
     6 Cl    0.000042  0.000024  0.000024
     7 O     0.000109 -0.000072 -0.000048
     8 Cl   -0.000033  0.000041 -0.000024
 ----------------------------------------
 Mulliken charges used for AMS results%charges...
 
----------------------------------------------------------------------
Geometry Convergence after Step  16       (Hartree/Angstrom,Angstrom)
----------------------------------------------------------------------
current energy                               -2.43342615 Hartree
energy change                      -0.00000089     0.00000800    T
constrained gradient max            0.00010465     0.00010000    F
constrained gradient rms            0.00004182     0.00006667    T
gradient max                        0.00010465
gradient rms                        0.00004182
cart. step max                      0.00085066     0.00100000    T
cart. step rms                      0.00041282     0.00066667    T
 
 
--------
Geometry
--------
Formula: Cl6OPa
Atoms
  Index Symbol   x (angstrom)   y (angstrom)   z (angstrom)
      1     Pa    -0.36436547    -0.78374061     0.33931150       adf.R=2.200
      2     Cl     1.24903700     1.31060603    -0.52504232       adf.R=1.725
      3     Cl    -0.73260184    -2.64001180     2.38534219       adf.R=1.725
      4     Cl     1.52480349    -0.27711682     2.32304612       adf.R=1.725
      5     Cl    -2.39536214    -2.52815812    -0.42489114       adf.R=1.725
      6     Cl    -1.17631032    -0.08377812    -2.22616296       adf.R=1.725
      7      O    -1.56045962     0.37123780     1.10186427       adf.R=1.517
      8     Cl     1.36432434    -2.46146447    -0.74740769       adf.R=1.725
 
Total System Charge            -3.00000
Bonding info available!
 
 *** GO1_GOStep17 ***

 SOLVATION
-------------------------------------------

  The Delley construction of COSMO surface surface is calculated

       Division Level for Surface Triangles (NDIV)                  3
       Final Division Level for Triangles (NFDIV)                   1
       Radius of the Solvent (RSOL)                           1.93000 angstr
  Dielectric Constant (EPSL)                                 78.39000

       COSMO equation is solved iteratively-               conjugate-gradient

       Maximun of Iterations for Charges (NCIX)                  1000
       Criterion for Charge convergence (CCNV)                1.0E-08

  COSMO charges included variationally in SCF

       COSMO included at every SCF cycle

  Geometry-dependent empirical factor                         0.00000

  C-Matrix calculated in cspmtx

  In cspmtx, C-Matrix calculated using fitted potential

-------------------------------------------



[...]
 Index  Atom      ---- Displacements (x/y/z) ----
     1    Pa       0.044906   0.030744   0.024920
     2    Cl      -0.188513  -0.206836   0.214073
     3    Cl       0.106218  -0.024195   0.138256
     4    Cl      -0.267336   0.028623  -0.291993
     5    Cl      -0.256585  -0.300306  -0.146095
     6    Cl       0.053009   0.114024  -0.142268
     7     O       0.511231   0.431049   0.149971
     8    Cl       0.022677  -0.011595  -0.005213
 
 Mode:    21      Frequency (cm-1):      195.6225     Intensity (km/mol):       79.9066
 Index  Atom      ---- Displacements (x/y/z) ----
     1    Pa       0.011746  -0.017417   0.048785
     2    Cl       0.202201   0.095448   0.009374
     3    Cl       0.005611   0.311498  -0.249585
     4    Cl      -0.212968  -0.076750  -0.103530
     5    Cl       0.016116  -0.056940   0.145615
     6    Cl      -0.090990   0.040697  -0.400483
     7     O      -0.019272  -0.411760   0.600492
     8    Cl       0.011238  -0.010541   0.001627
 
 Mode:    22      Frequency (cm-1):      208.4132     Intensity (km/mol):       56.0166
 Index  Atom      ---- Displacements (x/y/z) ----
     1    Pa      -0.053176   0.044407   0.032012
     2    Cl      -0.196726  -0.246110   0.094165
     3    Cl       0.044850   0.225062  -0.259811
     4    Cl      -0.220899  -0.063968  -0.237465
     5    Cl       0.266872   0.234259   0.094468
     6    Cl       0.106783  -0.097579   0.343642
     7     O      -0.094390   0.085660   0.012353
     8    Cl       0.393624  -0.384237  -0.252150
 
 Mode:    23      Frequency (cm-1):      261.0212     Intensity (km/mol):      114.5375
 Index  Atom      ---- Displacements (x/y/z) ----
     1    Pa      -0.075883   0.075269   0.049824
     2    Cl       0.171309   0.218634  -0.094771
     3    Cl      -0.038353  -0.194030   0.214286
     4    Cl       0.198110   0.050007   0.208537
     5    Cl      -0.213559  -0.184286  -0.080433
     6    Cl      -0.085249   0.074025  -0.273794
     7     O      -0.037780   0.020751   0.012802
     8    Cl       0.486374  -0.471134  -0.308861
 
 Mode:    24      Frequency (cm-1):      831.8716     Intensity (km/mol):      595.1490
 Index  Atom      ---- Displacements (x/y/z) ----
     1    Pa      -0.044599   0.043103   0.028059
     2    Cl      -0.008257  -0.013488   0.004277
     3    Cl       0.003348   0.009701  -0.012408
     4    Cl      -0.009786  -0.004353  -0.012005
     5    Cl       0.013257   0.009209   0.004059
     6    Cl       0.006254  -0.005414   0.014853
     7     O       0.651648  -0.630370  -0.414539
     8    Cl      -0.008223   0.007902   0.005451

 Vibrational polarizability tensor (a.u.):
                  X                   Y                   Z
 X            2393.41924           771.89722           564.77364
 Y             771.89722          2494.69030          -557.22111
 Z             564.77364          -557.22111          2882.07504

 Isotropic =      2590.1    atomic units

PES point character: Geometry corresponds to a local minimum on the PES.




 ============================
 Statistical Thermal Analysis  ***  ideal gas assumed  ***
 ============================
  
 Pressure:                  1.000000 atm.
 Temperature:             298.150000 K



 Moments of Inertia [amu*bohr^2] and principal axis
 ==================================================

        3436.5630       3436.8153       4833.8355
 ------------------------------------------------
           0.6175         -0.4370         -0.6540
           0.7635          0.1332          0.6319
          -0.1890         -0.8895          0.4159


 The rotational contribution to the molecular entropy includes
 a term, dependent on the symmetry number sigma. The results 
 reported below were computed using sigma = 1, determined from
 the point group symmetry of the input geometry (NOSYM). 
 If this is not the correct symmetry, try symmetrizing the molecule before
 running the calculation (note: linear molecules should be aligned along one
 of the Cartesian axes).
 Contributions from frequencies below 20 1/cm are not included in vibrational sums.
 Their contributions, if any, are reported separately.


     Temp                                                        Transl      Rotat     Vibrat     Total
     ----                                                        ------      -----     ------     -----

     298.15   Entropy (cal/mol-K):                               44.246     32.412     51.932    128.591
              Nuclear Internal Energy (kcal/mol):                 0.889      0.889     11.779     13.556
              Constant Volume Heat Capacity (cal/mol-K):          2.981      2.981     32.837     38.798
          (c) Constant Volume Heat Capacity (cal/mol-K):          2.981      2.981     27.775     33.737

       Summary of energy terms
                                                   hartree              eV         kcal/mol           kJ/mol
                                      --------------------     -----------       ----------      -----------
      Energy from Engine:               -2.433425544259410        -66.2169         -1527.00         -6388.96
      Nuclear Internal Energy:           0.021603614197963          0.5879            13.56            56.72
  (c) Nuclear Internal Energy:           0.019005973959580          0.5172            11.93            49.90
      Internal Energy U:                -2.411821930061448        -65.6290         -1513.44         -6332.24
      pV/n = RT:                         0.000944186013486          0.0257             0.59             2.48
      Enthalpy H:                       -2.410877744047962        -65.6033         -1512.85         -6329.76
      -T*S:                             -0.061097621703534         -1.6626           -38.34          -160.41
  (c) -T*S:                             -0.058622550739562         -1.5952           -36.79          -153.91
      Gibbs free energy:                -2.471975365751495        -67.2659         -1551.19         -6490.17
 
 
 
  (c) The properties marked with this symbol have been corrected using 'low vibrational frequency free rotor
      interpolation corrections'. For those terms all positive frequencies are used (also ones below 20 1/cm),
      but the contribution to the partition function of small vibrational frequencies is modified as described
      in the following paper:
      S. Grimme, 'Supramolecular Binding Thermodynamics by Dispersion-Corrected Density Functional Theory'
      (Chem. Eur. J. 2012, 18, 9955-9964)
      Configuration: Dampener Frequency          :   100.000 1/cm
                     Dampener Alpha              :     4.000
                     Averaging Moment of Inertia : 1.000E-44 kg m2

--------------
Atomic charges
--------------
  Index   Atom    Charge
      1     Pa    1.5143
      2     Cl   -0.6418
      3     Cl   -0.6452
      4     Cl   -0.6445
      5     Cl   -0.6437
      6     Cl   -0.6413
      7      O   -0.8069
      8     Cl   -0.4909


Dipole moment vector    (Debye):     3.92413101   12.68692134   -4.20848412
              magnitude (Debye):    13.93083328


-----------------------
Molecular orbitals info
-----------------------
n orbitals:              365
n spin:                    1

Note: only printing virtual orbitals with
      energy smaller than HOMO + 100. eV

HOMO (eV):              -6.8750
LUMO (eV):              -1.6361
HOMO-LUMO gap (eV):      5.2390

   Index   Energy (eV)    Occupation
     279       84.7691         0.000       
     278       84.6882         0.000       
     277       84.6536         0.000       
     276       82.8902         0.000       
     275       82.7948         0.000       
     274       81.0554         0.000       
     273       79.1268         0.000       
     272       79.1159         0.000       
     271       75.4473         0.000       
     270       74.9479         0.000       
     269       74.9421         0.000       
     268       73.3137         0.000       
     267       73.2699         0.000       
     266       72.9594         0.000       
     265       70.9782         0.000       
     264       70.9747         0.000       
     263       70.1532         0.000       
     262       70.1118         0.000       
     261       70.0332         0.000       
     260       70.0211         0.000       
     259       69.7371         0.000       
     258       69.6078         0.000       
     257       68.0577         0.000       
     256       68.0524         0.000       
     255       67.9745         0.000       
     254       67.9327         0.000       
     253       66.8094         0.000       
     252       65.3536         0.000       
     251       65.3447         0.000       
     250       65.3403         0.000       
     249       65.3391         0.000       
     248       59.7729         0.000       
     247       59.7659         0.000       
     246       59.3081         0.000       
     245       55.7141         0.000       
     244       50.6370         0.000       
     243       50.6345         0.000       
     242       48.9018         0.000       
     241       43.1605         0.000       
     240       43.1481         0.000       
     239       42.5502         0.000       
     238       42.5098         0.000       
     237       42.0035         0.000       
     236       41.2908         0.000       
     235       40.4086         0.000       
     234       40.4051         0.000       
     233       40.1345         0.000       
     232       40.1342         0.000       
     231       40.0270         0.000       
     230       39.9829         0.000       
     229       39.3528         0.000       
     228       39.0978         0.000       
     227       39.0656         0.000       
     226       38.9626         0.000       
     225       38.7210         0.000       
     224       38.7189         0.000       
     223       38.5784         0.000       
     222       38.5481         0.000       
     221       38.5222         0.000       
     220       38.3230         0.000       
     219       38.3188         0.000       
     218       37.9717         0.000       
     217       37.9503         0.000       
     216       37.5462         0.000       
     215       37.5032         0.000       
     214       37.5021         0.000       
     213       37.3553         0.000       
     212       37.3543         0.000       
     211       36.9506         0.000       
     210       36.9310         0.000       
     209       36.3512         0.000       
     208       36.1881         0.000       
     207       36.1765         0.000       
     206       34.7481         0.000       
     205       34.7439         0.000       
     204       34.5331         0.000       
     203       34.5273         0.000       
     202       34.5171         0.000       
     201       34.5034         0.000       
     200       34.4452         0.000       
     199       34.0374         0.000       
     198       34.0112         0.000       
     197       32.8857         0.000       
     196       29.9209         0.000       
     195       28.6417         0.000       
     194       28.6147         0.000       
     193       27.5606         0.000       
     192       27.5585         0.000       
     191       26.4450         0.000       
     190       26.4410         0.000       
     189       25.1709         0.000       
     188       24.0371         0.000       
     187       24.0319         0.000       
     186       23.7234         0.000       
     185       23.7053         0.000       
     184       22.7574         0.000       
     183       22.7507         0.000       
     182       22.1136         0.000       
     181       21.5962         0.000       
     180       20.7750         0.000       
     179       20.7599         0.000       
     178       20.0622         0.000       
     177       20.0342         0.000       
     176       19.4659         0.000       
     175       18.7596         0.000       
     174       18.7582         0.000       
     173       18.6372         0.000       
     172       18.0342         0.000       
     171       17.0387         0.000       
     170       17.0280         0.000       
     169       16.2308         0.000       
     168       16.2166         0.000       
     167       16.1641         0.000       
     166       16.1513         0.000       
     165       15.4674         0.000       
     164       15.4134         0.000       
     163       15.4126         0.000       
     162       14.9843         0.000       
     161       14.8046         0.000       
     160       14.8037         0.000       
     159       14.6368         0.000       
     158       14.6327         0.000       
     157       14.2058         0.000       
     156       13.8027         0.000       
     155       13.8024         0.000       
     154       13.4381         0.000       
     153       13.4331         0.000       
     152       12.5645         0.000       
     151       12.4925         0.000       
     150       12.4915         0.000       
     149       11.8869         0.000       
     148       11.8861         0.000       
     147       11.7020         0.000       
     146       11.4436         0.000       
     145       11.4310         0.000       
     144       11.2087         0.000       
     143       11.2069         0.000       
     142       10.5551         0.000       
     141        9.9453         0.000       
     140        9.9336         0.000       
     139        9.6391         0.000       
     138        9.6376         0.000       
     137        9.3717         0.000       
     136        9.3594         0.000       
     135        9.2947         0.000       
     134        9.2780         0.000       
     133        9.2724         0.000       
     132        8.6958         0.000       
     131        8.6935         0.000       
     130        8.1570         0.000       
     129        8.1444         0.000       
     128        7.6894         0.000       
     127        7.5940         0.000       
     126        7.5923         0.000       
     125        7.3139         0.000       
     124        6.4433         0.000       
     123        3.9547         0.000       
     122        3.7778         0.000       
     121        3.7754         0.000       
     120        3.5899         0.000       
     119        2.8851         0.000       
     118        2.8841         0.000       
     117        2.8818         0.000       
     116        2.8765         0.000       
     115        2.3560         0.000       
     114        1.8117         0.000       
     113        1.8089         0.000       
     112        1.5004         0.000       
     111        1.4801         0.000       
     110        0.4849         0.000       
     109       -0.6989         0.000       
     108       -1.3277         0.000       
     107       -1.3286         0.000       
     106       -1.5046         0.000       
     105       -1.5055         0.000       
     104       -1.6355         0.000       
     103       -1.6361         0.000 < LUMO
     102       -6.8750         2.000 < HOMO
     101       -7.3813         2.000       
     100       -7.3816         2.000       
      99       -7.8711         2.000       
      98       -7.8722         2.000       
      97       -7.8928         2.000       
      96       -7.9048         2.000       
      95       -8.0220         2.000       
      94       -8.4146         2.000       
      93       -8.4164         2.000       
      92       -8.4174         2.000       
      91       -8.4305         2.000       
      90       -8.6511         2.000       
      89       -8.8987         2.000       
      88       -8.9010         2.000       
      87       -9.3358         2.000       
      86       -9.3378         2.000       
      85       -9.5940         2.000       
      84      -10.0363         2.000       
      83      -10.0365         2.000       
      82      -10.2813         2.000       
      81      -20.4841         2.000       
      80      -20.7008         2.000       
      79      -20.7013         2.000       
      78      -20.8765         2.000       
      77      -20.8915         2.000       
      76      -21.3391         2.000       
      75      -22.3748         2.000       
      74      -25.5402         2.000       
      73      -25.5405         2.000       
      72      -29.5128         2.000       
      71      -50.0815         2.000       
      70     -100.0501         2.000       
      69     -100.0954         2.000       
      68     -100.0956         2.000       
      67     -100.1881         2.000       
      66     -100.1886         2.000       
      65     -195.5020         2.000       
      64     -195.5071         2.000       
      63     -195.5119         2.000       
      62     -195.5169         2.000       
      61     -195.5215         2.000       
      60     -195.5220         2.000       
      59     -195.5232         2.000       
      58     -195.5268         2.000       
      57     -195.5364         2.000       
      56     -195.5381         2.000       
      55     -195.5496         2.000       
      54     -195.5546         2.000       
      53     -195.5593         2.000       
      52     -195.5687         2.000       
      51     -195.5704         2.000       
      50     -196.2683         2.000       
      49     -196.2684         2.000       
      48     -196.3011         2.000       
      47     -207.2040         2.000       
      46     -207.4688         2.000       
      45     -207.4689         2.000       
      44     -259.0738         2.000       
      43     -259.0789         2.000       
      42     -259.0837         2.000       
      41     -259.0932         2.000       
      40     -259.0949         2.000       
      39     -259.8308         2.000       
      38     -305.9076         2.000       
      37     -361.1642         2.000       
      36     -361.2002         2.000       
      35     -361.2003         2.000       
      34     -361.3328         2.000       
      33     -361.3330         2.000       
      32     -361.4618         2.000       
      31     -361.4618         2.000       
      30     -522.4506         2.000       
      29     -712.9821         2.000       
      28     -713.1324         2.000       
      27     -713.1325         2.000       
      26     -713.3132         2.000       
      25     -713.3134         2.000       
      24    -1041.2649         2.000       
      23    -1041.5770         2.000       
      22    -1041.5770         2.000       
      21    -1359.6523         2.000       
      20    -2775.2563         2.000       
      19    -2775.2614         2.000       
      18    -2775.2662         2.000       
      17    -2775.2755         2.000       
      16    -2775.2771         2.000       
      15    -2776.0137         2.000       
      14    -3484.8672         2.000       
      13    -3484.9248         2.000       
      12    -3484.9248         2.000       
      11    -3485.0089         2.000       
      10    -3485.0089         2.000       
       9    -4347.0803         2.000       
       8    -4347.2550         2.000       
       7    -4347.2551         2.000       
       6    -5318.2571         2.000       
       5   -17561.2018         2.000       
       4   -17561.2256         2.000       
       3   -17561.2257         2.000       
       2   -21037.0182         2.000       
       1  -112698.8199         2.000       

Final PES point is a local minimum. Geometry optimization successful!


AMS application finished. Exiting.
NORMAL TERMINATION
     Total cpu time:   14186.84
  Total system time:     388.43
 Total elapsed time:   14661.87
