

 Parallel Execution: Process Information
 ==============================================================================
 Rank   Node Name                              NodeID   MyNodeRank  NodeMaster
    0   u-0-6.local                               0          0          0
    1   u-0-6.local                               0          1         -1
    2   u-0-6.local                               1          0          1
    3   u-0-6.local                               1          1         -1
    4   u-0-6.local                               2          0          2
    5   u-0-6.local                               2          1         -1
    6   u-0-6.local                               3          0          3
    7   u-0-6.local                               3          1         -1
 ==============================================================================


May use up to 31228MB of RAM as shared memory on node 0
May use up to 31250MB of RAM as shared memory on node 1
May use up to 31250MB of RAM as shared memory on node 2
May use up to 31250MB of RAM as shared memory on node 3

 *******************************************************************************
 *                                                                             *
 *  --------------------------------                                           *
 *   Amsterdam Modeling Suite (AMS)              2024.102                      *
 *  --------------------------------                                           *
 *                                               r122055 2024-06-07            *
 *                                                                             *
 *                                                                             *
 *                              =================                              *
 *                              |               |                              *
 *                              |     A M S     |                              *
 *                              |               |                              *
 *                              =================                              *
 *                                                                             *
 *                                                                             *
 *   Online information and documentation:  https://www.scm.com/support/       *
 *   E-mail:  support@scm.com   info@scm.com                                   *
 *                                                                             *
 *   Scientific publications using AMS results must be properly referenced     *
 *   See the User Manuals (or the web site) for recommended citations          *
 *   The terms and conditions of the End User License Agreement apply to       *
 *   the use of AMS, https://www.scm.com/license-terms/                        *
 *                                                                             *
 **********************  x86_64_linux_intel / intelmpi  ************************
 
 Licensed to: Dr. Val?rie Vallet / Laboratoire PhLAM UMR 8523 / Villeneuve d'Ascq Cedex / FRANCE 2024-02-19 16:59:55
 SCM User ID: u10325
  
 AMS 2024.102  RunTime: Sep10-2024 15:20:09  ShM Nodes: 4  Procs: 8

 AMS jobname: pao_oh_2cl_3h2o.SR.pbe0.tz2p.sp-gp
 AMS jobid  : 250358901

 Start   directory: /state/partition2/shaaban/1027932.phlam-s-sakura/
 Results directory: /home/shaaban/ams/PhD/geometries-exafs/pao_oh_cl2_3h2o/PBE0/pao_oh_2cl_3h2o.SR.pbe0.tz2p.sp-gp.results/
 Scratch directory: /state/partition2/shaaban/1027932.phlam-s-sakura/amstmp_pao_oh_2cl_3h2o.SR.pbe0.tz2p.sp-gp_kid0.250358901/


 Communication costs MPI_COMM_WORLD:      9.381 usec per message,   0.0285 usec per 8-byte item
 Communication costs for intra-node:      0.937 usec per message,   0.0055 usec per 8-byte item

 RNG seed: -1285891647 1257729800 229515956 -961164866 1293662415 876782907 1032604020 2082152396



                      ************************************************************************
                      *  ADF 2024.102  RunTime: Sep10-2024 15:20:11  ShM Nodes: 4  Procs: 8  *
                      ************************************************************************
  

       ****************************
       * SINGLE POINT CALCULATION *
       ****************************
 
--------
Geometry
--------
Formula: H7Cl2O5Pa
Atoms
  Index Symbol   x (angstrom)   y (angstrom)   z (angstrom)
      1     Pa    -0.28652324    -0.26596131     0.48810888
      2      O     1.62864559     1.24895571     1.09302799
      3      O    -0.63450392     0.71873327    -1.27049828
      4     Cl    -1.24772841     1.84791222     1.93829048
      5      H    -0.17447964     1.02737756    -2.05960026
      6      O    -1.20598536    -2.32651178    -0.61397421
      7      H    -1.28402765    -2.41063089    -1.57068202
      8      H    -0.95963066    -3.19744075    -0.28338595
      9      H     1.52777176     1.83170315     1.85406837
     10      O    -0.09081353    -1.30266198     1.98038760
     11     Cl     1.97725156    -1.27359116    -0.62494265
     12      H    -3.23741636     0.01647807     1.37185775
     13      H     2.52477181     0.89495672     1.10695935
     14      O    -2.81399203    -0.48175212     0.66375496
     15      H    -3.21928237    -1.35566554     0.64559740
 
Total System Charge             0.00000
Bonding info available!
 
 
----------------
ADF Engine Input
----------------
 
 Basis
 Type TZ2P
 Core None
 End
 XC
 Hybrid PBE0
 End
 NumericalQuality Good
 MBPT
 SigmaFunctionalParametrization W1
 End
 

 Title: *** (NO TITLE) ***

 *** adf ***



 ===========================
 A T T A C H E D   F I L E S
 ===========================
  



 ===============================
 M O D E L   P A R A M E T E R S
 ===============================
  
 DENSITY FUNCTIONAL POTENTIAL (scf)
    Hybrid:                            PBE0                                    == Not Default ==

 SPIN  (restricted / unrestr.)
    Molecule:                          Restricted                               
    Fragments:                         Restricted                               

 OTHER ASPECTS
    Relativistic Corrections:          scalar (ZORA,MAPA)                       

    Nuclear Charge Density Model:      Point Charge Nuclei                      
    Core Treatment:                    Frozen Orbital(s)                        

    Hyperfine or Zeeman Interaction:   ---                                      


 Fragment File(s)
 ----------------
 Pa:
         file : /home/shaaban/ams/PhD/geometries-exafs/pao_oh_cl2_3h2o/PBE0/pao_oh_2cl_3h2o.SR.pbe0.tz2p.sp-gp.results/t21.5DB43083.Pa
         jobid: 0
         title: Protactinium (TZ2P, all electron)
 O:
         file : /home/shaaban/ams/PhD/geometries-exafs/pao_oh_cl2_3h2o/PBE0/pao_oh_2cl_3h2o.SR.pbe0.tz2p.sp-gp.results/t21.64F429D6.O
         jobid: 0
         title: Oxygen (TZ2P)
 Cl:
         file : /home/shaaban/ams/PhD/geometries-exafs/pao_oh_cl2_3h2o/PBE0/pao_oh_2cl_3h2o.SR.pbe0.tz2p.sp-gp.results/t21.D7FD811.Cl
         jobid: 0
         title: Chlorine (TZ2P)
 H:
         file : /home/shaaban/ams/PhD/geometries-exafs/pao_oh_cl2_3h2o/PBE0/pao_oh_2cl_3h2o.SR.pbe0.tz2p.sp-gp.results/t21.DEE514F.H
         jobid: 0
         title: Hydrogen (TZ2P)



 ===============
 G E O M E T R Y  ***  3D  Molecule  ***
 ===============
  

 ATOMS
 =====                            X Y Z                    CHARGE
                                (Angstrom)             Nucl     +Core       At.Mass
                       --------------------------    ----------------       -------
    1  Pa             -0.2865   -0.2660    0.4881     91.00     91.00      231.0359
    2  O               1.6286    1.2490    1.0930      8.00      8.00       15.9949
    3  O              -0.6345    0.7187   -1.2705      8.00      8.00       15.9949
    4  Cl             -1.2477    1.8479    1.9383     17.00     17.00       34.9689
    5  H              -0.1745    1.0274   -2.0596      1.00      1.00        1.0078
    6  O              -1.2060   -2.3265   -0.6140      8.00      8.00       15.9949
    7  H              -1.2840   -2.4106   -1.5707      1.00      1.00        1.0078
    8  H              -0.9596   -3.1974   -0.2834      1.00      1.00        1.0078
    9  H               1.5278    1.8317    1.8541      1.00      1.00        1.0078
   10  O              -0.0908   -1.3027    1.9804      8.00      8.00       15.9949
   11  Cl              1.9773   -1.2736   -0.6249     17.00     17.00       34.9689
   12  H              -3.2374    0.0165    1.3719      1.00      1.00        1.0078
   13  H               2.5248    0.8950    1.1070      1.00      1.00        1.0078
   14  O              -2.8140   -0.4818    0.6638      8.00      8.00       15.9949
   15  H              -3.2193   -1.3557    0.6456      1.00      1.00        1.0078


 FRAGMENTS
 =========                                     Atoms in this Fragment     Cart. coord.s (Angstrom)
                                               -------------------------------------------------------
    1  Pa                                                1  Pa          -0.2865   -0.2660    0.4881
    2  O                                                 2  O            1.6286    1.2490    1.0930
    3  O                                                 3  O           -0.6345    0.7187   -1.2705
    4  O                                                 6  O           -1.2060   -2.3265   -0.6140
    5  O                                                10  O           -0.0908   -1.3027    1.9804
    6  O                                                14  O           -2.8140   -0.4818    0.6638
    7  Cl                                                4  Cl          -1.2477    1.8479    1.9383
    8  Cl                                               11  Cl           1.9773   -1.2736   -0.6249
    9  H                                                 5  H           -0.1745    1.0274   -2.0596
   10  H                                                 7  H           -1.2840   -2.4106   -1.5707
   11  H                                                 8  H           -0.9596   -3.1974   -0.2834
   12  H                                                 9  H            1.5278    1.8317    1.8541
   13  H                                                12  H           -3.2374    0.0165    1.3719
   14  H                                                13  H            2.5248    0.8950    1.1070
   15  H                                                15  H           -3.2193   -1.3557    0.6456


 Interatomic Distance Matrix (Angstrom)
 --------------------------------------

   1)     0.000
   2)     2.516   0.000
   3)     2.045   3.315   0.000
   4)     2.738   3.057   3.457   0.000
   5)     2.859   3.639   0.964   4.220   0.000
   6)     2.511   4.872   3.167   4.893   3.795   0.000
   7)     3.136   5.383   3.210   5.518   3.646   0.964   0.000
   8)     3.105   5.326   4.052   5.520   4.650   0.964   1.543   0.000
   9)     3.092   0.964   3.959   2.777   4.343   5.555   6.135   6.004   0.000
  10)     1.828   3.202   3.867   3.357   4.665   3.004   3.907   3.077   3.530   0.000
  11)     2.716   3.072   3.348   5.169   3.462   3.353   3.581   3.527   3.999   3.326
          0.000
  12)     3.093   5.027   3.775   2.763   4.709   3.682   4.285   4.273   5.122   3.466
          5.731   0.000
  13)     3.104   0.964   3.958   3.979   4.163   5.221   5.710   5.552   1.559   3.526
          2.829   5.835   0.000
  14)     2.543   4.787   3.152   3.083   4.082   2.761   3.325   3.422   5.062   3.134
          5.024   0.964   5.531   0.000
  15)     3.133   5.521   3.828   3.978   4.719   2.566   3.126   3.060   5.844   3.402
          5.350   1.553   6.186   0.963   0.000

 Min. Distance =    0.9635
 Max. Distance =    6.1865



 =====================================
 S Y M M E T R Y ,   E L E C T R O N S
 =====================================
  
 Symmetry: NOSYM

 Irreducible Representations, including subspecies
 -------------------------------------------------
 A

 Symmetry is NOT used when fitting density


 Configuration of Valence Electrons
 ==================================
 ( determined in the SCF procedure )

 Total:   172

 Net Charge: 0 (Nuclei minus Electrons)

 Aufbau principle for MO occupations will be applied through SCF cycle no.     150
 Thereafter, the program will assign electrons to MOs that are spatially
 similar to the occupied MOs in a "reference" cycle ("KeepOrbitals").
 The reference cycle is always the PREVIOUS cycle: it will evolve with
 the SCF procedure.
1
 ***************************************************************************************************



                                      ****************************************
                                      *  B U I L D : (Fragments, Functions)  *
                                      ****************************************
  



 =======
 S F O s  ***  (Symmetrized Fragment Orbitals)  ***
 =======
  
 SFOs are linear combinations of (valence) Fragment Orbitals (FOs), such that the SFOs transform as the
 irreducible representations of the (molecular) symmetry group. Each SFO is therefore characterized by
 an irrep of the molecule and by a few (or only one) generating FOs.
 The SFOs constitute a symmetry-adapted basis for the Fock matrix. The MO eigenvector coefficients in
 this basis provide a direct interpretation of the MOs in terms of Frontier Orbital Theory.

 The SFOs are combined with auxiliary Core Functions (CFs) to ensure orthogonalization on the (frozen)
 Core Orbitals (COs). The Core-orthogonalized SFOs (CSFOs) constitute the true Fock basis.

 The FOs, and hence also the (C)SFOs are combinations of the elementary basis functions (BAS). The basis
 functions that participate in the description of the SFOs depend on the irrep. The indices of the
 involved functions are printed below for each irrep.
 (The complete list of primitive basis functions is printed in another section)

 Total nr. of (C)SFOs (summation over all irreps) :   410

 NOTE: a (C)SFO that is defined as a combination of more than one FO is usually NOT normalized.



                                       === A ===
 Nr. of SFOs :  410
 Cartesian basis functions that participate in this irrep (total number =   469) :
      1     2     3     4     5     6     7     8     9    10
     11    12    13    14    15    16    17    20    23    26
     29    32    35    38    41    44    47    50   157    18
     21    24    27    30    33    36    39    42    45    48
     51   158    19    22    25    28    31    34    37    40
     43    46    49    52   159    53    59    65    71    77
     83    89    95   101    54    60    66    72    78    84
     90    96   102    55    61    67    73    79    85    91
     97   103    56    62    68    74    80    86    92    98
    104    57    63    69    75    81    87    93    99   105
     58    64    70    76    82    88    94   100   106   107
    117   127   137   147   108   118   128   138   148   109
    119   129   139   149   110   120   130   140   150   111
    121   131   141   151   112   122   132   142   152   113
    123   133   143   153   114   124   134   144   154   115
    125   135   145   155   116   126   136   146   156   160
    161   162   163   164   165   168   171   166   169   172
    167   170   173   174   175   176   177   178   179   180
    181   182   183   184   185   186   187   188   189   190
    191   192   193   194   195   198   201   196   199   202
    197   200   203   204   205   206   207   208   209   210
    211   212   213   214   215   216   217   218   219   220
    221   222   223   224   225   228   231   226   229   232
    227   230   233   234   235   236   237   238   239   240
    241   242   243   244   245   246   247   248   249   250
    251   252   253   254   255   258   261   256   259   262
    257   260   263   264   265   266   267   268   269   270
    271   272   273   274   275   276   277   278   279   280
    281   282   283   284   285   288   291   286   289   292
    287   290   293   294   295   296   297   298   299   300
    301   302   303   304   305   306   307   308   309   310
    311   312   313   320   321   322   314   317   323   326
    329   315   318   324   327   330   316   319   325   328
    331   332   333   334   335   336   337   338   339   340
    341   342   343   344   345   346   347   348   349   350
    351   358   359   360   352   355   361   364   367   353
    356   362   365   368   354   357   363   366   369   370
    371   372   373   374   375   376   377   378   379   380
    381   382   383   384   385   386   387   388   389   390
    391   392   393   394   395   396   397   398   399   400
    401   402   403   404   405   406   407   408   409   410
    411   412   413   414   415   416   417   418   419   420
    421   422   423   424   425   426   427   428   429   430
    431   432   433   434   435   436   437   438   439   440
    441   442   443   444   445   446   447   448   449   450
    451   452   453   454   455   456   457   458   459   460
    461   462   463   464   465   466   467   468   469

    SFO  (index         Fragment          Generating    Expansion in Fragment Orbitals
  indx  incl.CFs)   Occup   Orb.Energy   FragmentType  Coeff.   Orbital     on Fragment
 --------------------------------------------------------------------------------------
     1       1      2.000   -4141.526 au  Pa            1.00      1 S               1
                        ( -112696.657 eV)
     2       2      2.000    -772.998 au  Pa            1.00      2 S               1
                        (  -21034.347 eV)
     3       3      2.000    -195.328 au  Pa            1.00      3 S               1
                        (   -5315.156 eV)
     4       4      2.000     -49.855 au  Pa            1.00      4 S               1
                        (   -1356.621 eV)
     5       5      2.000     -11.133 au  Pa            1.00      5 S               1
                        (    -302.952 eV)
     6       6      2.000      -1.795 au  Pa            1.00      6 S               1
                        (     -48.841 eV)
     7       7      2.000      -0.175 au  Pa            1.00      7 S               1
                        (      -4.760 eV)
     8       8       --         0.034 au  Pa            1.00      8 S               1
                        (       0.919 eV)
     9       9       --         0.339 au  Pa            1.00      9 S               1
                        (       9.238 eV)
    10      10       --         1.683 au  Pa            1.00     10 S               1
                        (      45.798 eV)
    11      11       --         8.710 au  Pa            1.00     11 S               1
                        (     237.014 eV)
    12      12       --        46.395 au  Pa            1.00     12 S               1
                        (    1262.476 eV)
    13      13       --      1052.783 au  Pa            1.00     13 S               1
                        (   28647.695 eV)
    14      14       --      5424.849 au  Pa            1.00     14 S               1
                        (  147617.662 eV)
    15      15       --     16328.088 au  Pa            1.00     15 S               1
                        (  444309.889 eV)
    16      16       --     46435.709 au  Pa            1.00     16 S               1
                        ( 1263579.939 eV)
    17      17      2.000    -645.265 au  Pa            1.00      1 P:x             1
                        (  -17558.565 eV)
    18      18      2.000    -159.642 au  Pa            1.00      2 P:x             1
                        (   -4344.092 eV)
    19      19      2.000     -38.162 au  Pa            1.00      3 P:x             1
                        (   -1038.447 eV)
    20      20      2.000      -7.518 au  Pa            1.00      4 P:x             1
                        (    -204.571 eV)
    21      21      2.000      -0.902 au  Pa            1.00      5 P:x             1
                        (     -24.533 eV)
    22      22       --        -0.009 au  Pa            1.00      6 P:x             1
                        (      -0.239 eV)
    23      23       --         0.410 au  Pa            1.00      7 P:x             1
                        (      11.153 eV)
    24      24       --         1.860 au  Pa            1.00      8 P:x             1
                        (      50.626 eV)
    25      25       --         7.599 au  Pa            1.00      9 P:x             1
                        (     206.767 eV)
    26      26       --        36.007 au  Pa            1.00     10 P:x             1
                        (     979.808 eV)
    27      27       --       178.692 au  Pa            1.00     11 P:x             1
                        (    4862.446 eV)
    28      28       --      1510.091 au  Pa            1.00     12 P:x             1
                        (   41091.664 eV)
    29      29       --     10784.724 au  Pa            1.00     13 P:x             1
                        (  293467.260 eV)
    30      30      2.000    -645.265 au  Pa            1.00      1 P:y             1
                        (  -17558.565 eV)
    31      31      2.000    -159.642 au  Pa            1.00      2 P:y             1
                        (   -4344.092 eV)
    32      32      2.000     -38.162 au  Pa            1.00      3 P:y             1
                        (   -1038.447 eV)
    33      33      2.000      -7.518 au  Pa            1.00      4 P:y             1
                        (    -204.571 eV)
    34      34      2.000      -0.902 au  Pa            1.00      5 P:y             1
                        (     -24.533 eV)
    35      35       --        -0.009 au  Pa            1.00      6 P:y             1
                        (      -0.239 eV)
    36      36       --         0.410 au  Pa            1.00      7 P:y             1
                        (      11.153 eV)
    37      37       --         1.860 au  Pa            1.00      8 P:y             1
                        (      50.626 eV)
    38      38       --         7.599 au  Pa            1.00      9 P:y             1
                        (     206.767 eV)
    39      39       --        36.007 au  Pa            1.00     10 P:y             1
                        (     979.808 eV)
    40      40       --       178.692 au  Pa            1.00     11 P:y             1
                        (    4862.446 eV)
    41      41       --      1510.091 au  Pa            1.00     12 P:y             1
                        (   41091.664 eV)
    42      42       --     10784.724 au  Pa            1.00     13 P:y             1
                        (  293467.260 eV)
    43      43      2.000    -645.265 au  Pa            1.00      1 P:z             1
                        (  -17558.565 eV)
    44      44      2.000    -159.642 au  Pa            1.00      2 P:z             1
                        (   -4344.092 eV)
    45      45      2.000     -38.162 au  Pa            1.00      3 P:z             1
                        (   -1038.447 eV)
    46      46      2.000      -7.518 au  Pa            1.00      4 P:z             1
                        (    -204.571 eV)
    47      47      2.000      -0.902 au  Pa            1.00      5 P:z             1
                        (     -24.533 eV)
    48      48       --        -0.009 au  Pa            1.00      6 P:z             1
                        (      -0.239 eV)
    49      49       --         0.410 au  Pa            1.00      7 P:z             1
                        (      11.153 eV)
    50      50       --         1.860 au  Pa            1.00      8 P:z             1
                        (      50.626 eV)
    51      51       --         7.599 au  Pa            1.00      9 P:z             1
                        (     206.767 eV)
    52      52       --        36.007 au  Pa            1.00     10 P:z             1
                        (     979.808 eV)
    53      53       --       178.692 au  Pa            1.00     11 P:z             1
                        (    4862.446 eV)
    54      54       --      1510.091 au  Pa            1.00     12 P:z             1
                        (   41091.664 eV)
    55      55       --     10784.724 au  Pa            1.00     13 P:z             1
                        (  293467.260 eV)
    56      56      2.000    -127.956 au  Pa            1.00      1 D:z2            1
                        (   -3481.863 eV)
    57      57      2.000     -26.098 au  Pa            1.00      2 D:z2            1
                        (    -710.150 eV)
    58      58      2.000      -3.589 au  Pa            1.00      3 D:z2            1
                        (     -97.672 eV)
    59      59      0.200      -0.066 au  Pa            1.00      4 D:z2            1
                        (      -1.800 eV)
    60      60       --         0.087 au  Pa            1.00      5 D:z2            1
                        (       2.364 eV)
    61      61       --         0.570 au  Pa            1.00      6 D:z2            1
                        (      15.503 eV)
    62      62       --         3.614 au  Pa            1.00      7 D:z2            1
                        (      98.350 eV)
    63      63       --        25.065 au  Pa            1.00      8 D:z2            1
                        (     682.063 eV)
    64      64       --       205.007 au  Pa            1.00      9 D:z2            1
                        (    5578.517 eV)
    65      65      2.000    -127.956 au  Pa            1.00      1 D:x2-y2         1
                        (   -3481.863 eV)
    66      66      2.000     -26.098 au  Pa            1.00      2 D:x2-y2         1
                        (    -710.150 eV)
    67      67      2.000      -3.589 au  Pa            1.00      3 D:x2-y2         1
                        (     -97.672 eV)
    68      68      0.200      -0.066 au  Pa            1.00      4 D:x2-y2         1
                        (      -1.800 eV)
    69      69       --         0.087 au  Pa            1.00      5 D:x2-y2         1
                        (       2.364 eV)
    70      70       --         0.570 au  Pa            1.00      6 D:x2-y2         1
                        (      15.503 eV)
    71      71       --         3.614 au  Pa            1.00      7 D:x2-y2         1
                        (      98.350 eV)
    72      72       --        25.065 au  Pa            1.00      8 D:x2-y2         1
                        (     682.063 eV)
    73      73       --       205.007 au  Pa            1.00      9 D:x2-y2         1
                        (    5578.517 eV)
    74      74      2.000    -127.956 au  Pa            1.00      1 D:xy            1
                        (   -3481.863 eV)
    75      75      2.000     -26.098 au  Pa            1.00      2 D:xy            1
                        (    -710.150 eV)
    76      76      2.000      -3.589 au  Pa            1.00      3 D:xy            1
                        (     -97.672 eV)
    77      77      0.200      -0.066 au  Pa            1.00      4 D:xy            1
                        (      -1.800 eV)
    78      78       --         0.087 au  Pa            1.00      5 D:xy            1
                        (       2.364 eV)
    79      79       --         0.570 au  Pa            1.00      6 D:xy            1
                        (      15.503 eV)
    80      80       --         3.614 au  Pa            1.00      7 D:xy            1
                        (      98.350 eV)
    81      81       --        25.065 au  Pa            1.00      8 D:xy            1
                        (     682.063 eV)
    82      82       --       205.007 au  Pa            1.00      9 D:xy            1
                        (    5578.517 eV)
    83      83      2.000    -127.956 au  Pa            1.00      1 D:xz            1
                        (   -3481.863 eV)
    84      84      2.000     -26.098 au  Pa            1.00      2 D:xz            1
                        (    -710.150 eV)
    85      85      2.000      -3.589 au  Pa            1.00      3 D:xz            1
                        (     -97.672 eV)
    86      86      0.200      -0.066 au  Pa            1.00      4 D:xz            1
                        (      -1.800 eV)
    87      87       --         0.087 au  Pa            1.00      5 D:xz            1
                        (       2.364 eV)
    88      88       --         0.570 au  Pa            1.00      6 D:xz            1
                        (      15.503 eV)
    89      89       --         3.614 au  Pa            1.00      7 D:xz            1
                        (      98.350 eV)
    90      90       --        25.065 au  Pa            1.00      8 D:xz            1
                        (     682.063 eV)
    91      91       --       205.007 au  Pa            1.00      9 D:xz            1
                        (    5578.517 eV)
    92      92      2.000    -127.956 au  Pa            1.00      1 D:yz            1
                        (   -3481.863 eV)
    93      93      2.000     -26.098 au  Pa            1.00      2 D:yz            1
                        (    -710.150 eV)
    94      94      2.000      -3.589 au  Pa            1.00      3 D:yz            1
                        (     -97.672 eV)
    95      95      0.200      -0.066 au  Pa            1.00      4 D:yz            1
                        (      -1.800 eV)
    96      96       --         0.087 au  Pa            1.00      5 D:yz            1
                        (       2.364 eV)
    97      97       --         0.570 au  Pa            1.00      6 D:yz            1
                        (      15.503 eV)
    98      98       --         3.614 au  Pa            1.00      7 D:yz            1
                        (      98.350 eV)
    99      99       --        25.065 au  Pa            1.00      8 D:yz            1
                        (     682.063 eV)
   100     100       --       205.007 au  Pa            1.00      9 D:yz            1
                        (    5578.517 eV)
   101     101      2.000     -13.166 au  Pa            1.00      1 F:z3            1
                        (    -358.254 eV)
   102     102      0.286      -0.038 au  Pa            1.00      2 F:z3            1
                        (      -1.040 eV)
   103     103       --         0.423 au  Pa            1.00      3 F:z3            1
                        (      11.518 eV)
   104     104       --         2.565 au  Pa            1.00      4 F:z3            1
                        (      69.799 eV)
   105     105       --        21.684 au  Pa            1.00      5 F:z3            1
                        (     590.042 eV)
   106     106      2.000     -13.166 au  Pa            1.00      1 F:z             1
                        (    -358.254 eV)
   107     107      0.286      -0.038 au  Pa            1.00      2 F:z             1
                        (      -1.040 eV)
   108     108       --         0.423 au  Pa            1.00      3 F:z             1
                        (      11.518 eV)
   109     109       --         2.565 au  Pa            1.00      4 F:z             1
                        (      69.799 eV)
   110     110       --        21.684 au  Pa            1.00      5 F:z             1
                        (     590.042 eV)
   111     111      2.000     -13.166 au  Pa            1.00      1 F:xyz           1
                        (    -358.254 eV)
   112     112      0.286      -0.038 au  Pa            1.00      2 F:xyz           1
                        (      -1.040 eV)
   113     113       --         0.423 au  Pa            1.00      3 F:xyz           1
                        (      11.518 eV)
   114     114       --         2.565 au  Pa            1.00      4 F:xyz           1
                        (      69.799 eV)
   115     115       --        21.684 au  Pa            1.00      5 F:xyz           1
                        (     590.042 eV)
   116     116      2.000     -13.166 au  Pa            1.00      1 F:z2x           1
                        (    -358.254 eV)
   117     117      0.286      -0.038 au  Pa            1.00      2 F:z2x           1
                        (      -1.040 eV)
   118     118       --         0.423 au  Pa            1.00      3 F:z2x           1
                        (      11.518 eV)
   119     119       --         2.565 au  Pa            1.00      4 F:z2x           1
                        (      69.799 eV)
   120     120       --        21.684 au  Pa            1.00      5 F:z2x           1
                        (     590.042 eV)
   121     121      2.000     -13.166 au  Pa            1.00      1 F:z2y           1
                        (    -358.254 eV)
   122     122      0.286      -0.038 au  Pa            1.00      2 F:z2y           1
                        (      -1.040 eV)
   123     123       --         0.423 au  Pa            1.00      3 F:z2y           1
                        (      11.518 eV)
   124     124       --         2.565 au  Pa            1.00      4 F:z2y           1
                        (      69.799 eV)
   125     125       --        21.684 au  Pa            1.00      5 F:z2y           1
                        (     590.042 eV)
   126     126      2.000     -13.166 au  Pa            1.00      1 F:x             1
                        (    -358.254 eV)
   127     127      0.286      -0.038 au  Pa            1.00      2 F:x             1
                        (      -1.040 eV)
   128     128       --         0.423 au  Pa            1.00      3 F:x             1
                        (      11.518 eV)
   129     129       --         2.565 au  Pa            1.00      4 F:x             1
                        (      69.799 eV)
   130     130       --        21.684 au  Pa            1.00      5 F:x             1
                        (     590.042 eV)
   131     131      2.000     -13.166 au  Pa            1.00      1 F:y             1
                        (    -358.254 eV)
   132     132      0.286      -0.038 au  Pa            1.00      2 F:y             1
                        (      -1.040 eV)
   133     133       --         0.423 au  Pa            1.00      3 F:y             1
                        (      11.518 eV)
   134     134       --         2.565 au  Pa            1.00      4 F:y             1
                        (      69.799 eV)
   135     135       --        21.684 au  Pa            1.00      5 F:y             1
                        (     590.042 eV)
   136     136      2.000     -19.396 au  O             1.00      1 S               2
                        (    -527.802 eV)
   137     137      2.000      -0.999 au  O             1.00      2 S               2
                        (     -27.198 eV)
   138     138       --         0.856 au  O             1.00      3 S               2
                        (      23.286 eV)
   139     139       --        13.669 au  O             1.00      4 S               2
                        (     371.949 eV)
   140     140       --       122.368 au  O             1.00      5 S               2
                        (    3329.795 eV)
   141     141      1.333      -0.366 au  O             1.00      1 P:x             2
                        (      -9.955 eV)
   142     142       --         0.397 au  O             1.00      2 P:x             2
                        (      10.811 eV)
   143     143       --         3.979 au  O             1.00      3 P:x             2
                        (     108.277 eV)
   144     144      1.333      -0.366 au  O             1.00      1 P:y             2
                        (      -9.955 eV)
   145     145       --         0.397 au  O             1.00      2 P:y             2
                        (      10.811 eV)
   146     146       --         3.979 au  O             1.00      3 P:y             2
                        (     108.277 eV)
   147     147      1.333      -0.366 au  O             1.00      1 P:z             2
                        (      -9.955 eV)
   148     148       --         0.397 au  O             1.00      2 P:z             2
                        (      10.811 eV)
   149     149       --         3.979 au  O             1.00      3 P:z             2
                        (     108.277 eV)
   150     150       --         1.128 au  O             1.00      1 D:z2            2
                        (      30.706 eV)
   151     151       --         1.128 au  O             1.00      1 D:x2-y2         2
                        (      30.706 eV)
   152     152       --         1.128 au  O             1.00      1 D:xy            2
                        (      30.706 eV)
   153     153       --         1.128 au  O             1.00      1 D:xz            2
                        (      30.706 eV)
   154     154       --         1.128 au  O             1.00      1 D:yz            2
                        (      30.706 eV)
   155     155       --         3.446 au  O             1.00      1 F:z3            2
                        (      93.771 eV)
   156     156       --         3.446 au  O             1.00      1 F:z             2
                        (      93.771 eV)
   157     157       --         3.446 au  O             1.00      1 F:xyz           2
                        (      93.771 eV)
   158     158       --         3.446 au  O             1.00      1 F:z2x           2
                        (      93.771 eV)
   159     159       --         3.446 au  O             1.00      1 F:z2y           2
                        (      93.771 eV)
   160     160       --         3.446 au  O             1.00      1 F:x             2
                        (      93.771 eV)
   161     161       --         3.446 au  O             1.00      1 F:y             2
                        (      93.771 eV)
   162     162      2.000     -19.396 au  O             1.00      1 S               3
                        (    -527.802 eV)
   163     163      2.000      -0.999 au  O             1.00      2 S               3
                        (     -27.198 eV)
   164     164       --         0.856 au  O             1.00      3 S               3
                        (      23.286 eV)
   165     165       --        13.669 au  O             1.00      4 S               3
                        (     371.949 eV)
   166     166       --       122.368 au  O             1.00      5 S               3
                        (    3329.795 eV)
   167     167      1.333      -0.366 au  O             1.00      1 P:x             3
                        (      -9.955 eV)
   168     168       --         0.397 au  O             1.00      2 P:x             3
                        (      10.811 eV)
   169     169       --         3.979 au  O             1.00      3 P:x             3
                        (     108.277 eV)
   170     170      1.333      -0.366 au  O             1.00      1 P:y             3
                        (      -9.955 eV)
   171     171       --         0.397 au  O             1.00      2 P:y             3
                        (      10.811 eV)
   172     172       --         3.979 au  O             1.00      3 P:y             3
                        (     108.277 eV)
   173     173      1.333      -0.366 au  O             1.00      1 P:z             3
                        (      -9.955 eV)
   174     174       --         0.397 au  O             1.00      2 P:z             3
                        (      10.811 eV)
   175     175       --         3.979 au  O             1.00      3 P:z             3
                        (     108.277 eV)
   176     176       --         1.128 au  O             1.00      1 D:z2            3
                        (      30.706 eV)
   177     177       --         1.128 au  O             1.00      1 D:x2-y2         3
                        (      30.706 eV)
   178     178       --         1.128 au  O             1.00      1 D:xy            3
                        (      30.706 eV)
   179     179       --         1.128 au  O             1.00      1 D:xz            3
                        (      30.706 eV)
   180     180       --         1.128 au  O             1.00      1 D:yz            3
                        (      30.706 eV)
   181     181       --         3.446 au  O             1.00      1 F:z3            3
                        (      93.771 eV)
   182     182       --         3.446 au  O             1.00      1 F:z             3
                        (      93.771 eV)
   183     183       --         3.446 au  O             1.00      1 F:xyz           3
                        (      93.771 eV)
   184     184       --         3.446 au  O             1.00      1 F:z2x           3
                        (      93.771 eV)
   185     185       --         3.446 au  O             1.00      1 F:z2y           3
                        (      93.771 eV)
   186     186       --         3.446 au  O             1.00      1 F:x             3
                        (      93.771 eV)
   187     187       --         3.446 au  O             1.00      1 F:y             3
                        (      93.771 eV)
   188     188      2.000     -19.396 au  O             1.00      1 S               4
                        (    -527.802 eV)
   189     189      2.000      -0.999 au  O             1.00      2 S               4
                        (     -27.198 eV)
   190     190       --         0.856 au  O             1.00      3 S               4
                        (      23.286 eV)
   191     191       --        13.669 au  O             1.00      4 S               4
                        (     371.949 eV)
   192     192       --       122.368 au  O             1.00      5 S               4
                        (    3329.795 eV)
   193     193      1.333      -0.366 au  O             1.00      1 P:x             4
                        (      -9.955 eV)
   194     194       --         0.397 au  O             1.00      2 P:x             4
                        (      10.811 eV)
   195     195       --         3.979 au  O             1.00      3 P:x             4
                        (     108.277 eV)
   196     196      1.333      -0.366 au  O             1.00      1 P:y             4
                        (      -9.955 eV)
   197     197       --         0.397 au  O             1.00      2 P:y             4
                        (      10.811 eV)
   198     198       --         3.979 au  O             1.00      3 P:y             4
                        (     108.277 eV)
   199     199      1.333      -0.366 au  O             1.00      1 P:z             4
                        (      -9.955 eV)
   200     200       --         0.397 au  O             1.00      2 P:z             4
                        (      10.811 eV)
   201     201       --         3.979 au  O             1.00      3 P:z             4
                        (     108.277 eV)
   202     202       --         1.128 au  O             1.00      1 D:z2            4
                        (      30.706 eV)
   203     203       --         1.128 au  O             1.00      1 D:x2-y2         4
                        (      30.706 eV)
   204     204       --         1.128 au  O             1.00      1 D:xy            4
                        (      30.706 eV)
   205     205       --         1.128 au  O             1.00      1 D:xz            4
                        (      30.706 eV)
   206     206       --         1.128 au  O             1.00      1 D:yz            4
                        (      30.706 eV)
   207     207       --         3.446 au  O             1.00      1 F:z3            4
                        (      93.771 eV)
   208     208       --         3.446 au  O             1.00      1 F:z             4
                        (      93.771 eV)
   209     209       --         3.446 au  O             1.00      1 F:xyz           4
                        (      93.771 eV)
   210     210       --         3.446 au  O             1.00      1 F:z2x           4
                        (      93.771 eV)
   211     211       --         3.446 au  O             1.00      1 F:z2y           4
                        (      93.771 eV)
   212     212       --         3.446 au  O             1.00      1 F:x             4
                        (      93.771 eV)
   213     213       --         3.446 au  O             1.00      1 F:y             4
                        (      93.771 eV)
   214     214      2.000     -19.396 au  O             1.00      1 S               5
                        (    -527.802 eV)
   215     215      2.000      -0.999 au  O             1.00      2 S               5
                        (     -27.198 eV)
   216     216       --         0.856 au  O             1.00      3 S               5
                        (      23.286 eV)
   217     217       --        13.669 au  O             1.00      4 S               5
                        (     371.949 eV)
   218     218       --       122.368 au  O             1.00      5 S               5
                        (    3329.795 eV)
   219     219      1.333      -0.366 au  O             1.00      1 P:x             5
                        (      -9.955 eV)
   220     220       --         0.397 au  O             1.00      2 P:x             5
                        (      10.811 eV)
   221     221       --         3.979 au  O             1.00      3 P:x             5
                        (     108.277 eV)
   222     222      1.333      -0.366 au  O             1.00      1 P:y             5
                        (      -9.955 eV)
   223     223       --         0.397 au  O             1.00      2 P:y             5
                        (      10.811 eV)
   224     224       --         3.979 au  O             1.00      3 P:y             5
                        (     108.277 eV)
   225     225      1.333      -0.366 au  O             1.00      1 P:z             5
                        (      -9.955 eV)
   226     226       --         0.397 au  O             1.00      2 P:z             5
                        (      10.811 eV)
   227     227       --         3.979 au  O             1.00      3 P:z             5
                        (     108.277 eV)
   228     228       --         1.128 au  O             1.00      1 D:z2            5
                        (      30.706 eV)
   229     229       --         1.128 au  O             1.00      1 D:x2-y2         5
                        (      30.706 eV)
   230     230       --         1.128 au  O             1.00      1 D:xy            5
                        (      30.706 eV)
   231     231       --         1.128 au  O             1.00      1 D:xz            5
                        (      30.706 eV)
   232     232       --         1.128 au  O             1.00      1 D:yz            5
                        (      30.706 eV)
   233     233       --         3.446 au  O             1.00      1 F:z3            5
                        (      93.771 eV)
   234     234       --         3.446 au  O             1.00      1 F:z             5
                        (      93.771 eV)
   235     235       --         3.446 au  O             1.00      1 F:xyz           5
                        (      93.771 eV)
   236     236       --         3.446 au  O             1.00      1 F:z2x           5
                        (      93.771 eV)
   237     237       --         3.446 au  O             1.00      1 F:z2y           5
                        (      93.771 eV)
   238     238       --         3.446 au  O             1.00      1 F:x             5
                        (      93.771 eV)
   239     239       --         3.446 au  O             1.00      1 F:y             5
                        (      93.771 eV)
   240     240      2.000     -19.396 au  O             1.00      1 S               6
                        (    -527.802 eV)
   241     241      2.000      -0.999 au  O             1.00      2 S               6
                        (     -27.198 eV)
   242     242       --         0.856 au  O             1.00      3 S               6
                        (      23.286 eV)
   243     243       --        13.669 au  O             1.00      4 S               6
                        (     371.949 eV)
   244     244       --       122.368 au  O             1.00      5 S               6
                        (    3329.795 eV)
   245     245      1.333      -0.366 au  O             1.00      1 P:x             6
                        (      -9.955 eV)
   246     246       --         0.397 au  O             1.00      2 P:x             6
                        (      10.811 eV)
   247     247       --         3.979 au  O             1.00      3 P:x             6
                        (     108.277 eV)
   248     248      1.333      -0.366 au  O             1.00      1 P:y             6
                        (      -9.955 eV)
   249     249       --         0.397 au  O             1.00      2 P:y             6
                        (      10.811 eV)
   250     250       --         3.979 au  O             1.00      3 P:y             6
                        (     108.277 eV)
   251     251      1.333      -0.366 au  O             1.00      1 P:z             6
                        (      -9.955 eV)
   252     252       --         0.397 au  O             1.00      2 P:z             6
                        (      10.811 eV)
   253     253       --         3.979 au  O             1.00      3 P:z             6
                        (     108.277 eV)
   254     254       --         1.128 au  O             1.00      1 D:z2            6
                        (      30.706 eV)
   255     255       --         1.128 au  O             1.00      1 D:x2-y2         6
                        (      30.706 eV)
   256     256       --         1.128 au  O             1.00      1 D:xy            6
                        (      30.706 eV)
   257     257       --         1.128 au  O             1.00      1 D:xz            6
                        (      30.706 eV)
   258     258       --         1.128 au  O             1.00      1 D:yz            6
                        (      30.706 eV)
   259     259       --         3.446 au  O             1.00      1 F:z3            6
                        (      93.771 eV)
   260     260       --         3.446 au  O             1.00      1 F:z             6
                        (      93.771 eV)
   261     261       --         3.446 au  O             1.00      1 F:xyz           6
                        (      93.771 eV)
   262     262       --         3.446 au  O             1.00      1 F:z2x           6
                        (      93.771 eV)
   263     263       --         3.446 au  O             1.00      1 F:z2y           6
                        (      93.771 eV)
   264     264       --         3.446 au  O             1.00      1 F:x             6
                        (      93.771 eV)
   265     265       --         3.446 au  O             1.00      1 F:y             6
                        (      93.771 eV)
   266     266      2.000    -102.119 au  Cl            1.00      1 S               7
                        (   -2778.789 eV)
   267     267      2.000      -9.646 au  Cl            1.00      2 S               7
                        (    -262.471 eV)
   268     268      2.000      -0.854 au  Cl            1.00      3 S               7
                        (     -23.229 eV)
   269     269       --         0.235 au  Cl            1.00      4 S               7
                        (       6.405 eV)
   270     270       --         2.083 au  Cl            1.00      5 S               7
                        (      56.675 eV)
   271     271       --        12.853 au  Cl            1.00      6 S               7
                        (     349.740 eV)
   272     272       --       206.451 au  Cl            1.00      7 S               7
                        (    5617.823 eV)
   273     273      2.000      -7.311 au  Cl            1.00      1 P:x             7
                        (    -198.932 eV)
   274     274      1.667      -0.356 au  Cl            1.00      2 P:x             7
                        (      -9.674 eV)
   275     275       --         0.265 au  Cl            1.00      3 P:x             7
                        (       7.199 eV)
   276     276       --         2.208 au  Cl            1.00      4 P:x             7
                        (      60.081 eV)
   277     277       --        19.015 au  Cl            1.00      5 P:x             7
                        (     517.415 eV)
   278     278      2.000      -7.311 au  Cl            1.00      1 P:y             7
                        (    -198.932 eV)
   279     279      1.667      -0.356 au  Cl            1.00      2 P:y             7
                        (      -9.674 eV)
   280     280       --         0.265 au  Cl            1.00      3 P:y             7
                        (       7.199 eV)
   281     281       --         2.208 au  Cl            1.00      4 P:y             7
                        (      60.081 eV)
   282     282       --        19.015 au  Cl            1.00      5 P:y             7
                        (     517.415 eV)
   283     283      2.000      -7.311 au  Cl            1.00      1 P:z             7
                        (    -198.932 eV)
   284     284      1.667      -0.356 au  Cl            1.00      2 P:z             7
                        (      -9.674 eV)
   285     285       --         0.265 au  Cl            1.00      3 P:z             7
                        (       7.199 eV)
   286     286       --         2.208 au  Cl            1.00      4 P:z             7
                        (      60.081 eV)
   287     287       --        19.015 au  Cl            1.00      5 P:z             7
                        (     517.415 eV)
   288     288       --         0.444 au  Cl            1.00      1 D:z2            7
                        (      12.084 eV)
   289     289       --         0.444 au  Cl            1.00      1 D:x2-y2         7
                        (      12.084 eV)
   290     290       --         0.444 au  Cl            1.00      1 D:xy            7
                        (      12.084 eV)
   291     291       --         0.444 au  Cl            1.00      1 D:xz            7
                        (      12.084 eV)
   292     292       --         0.444 au  Cl            1.00      1 D:yz            7
                        (      12.084 eV)
   293     293       --         1.251 au  Cl            1.00      1 F:z3            7
                        (      34.044 eV)
   294     294       --         1.251 au  Cl            1.00      1 F:z             7
                        (      34.044 eV)
   295     295       --         1.251 au  Cl            1.00      1 F:xyz           7
                        (      34.044 eV)
   296     296       --         1.251 au  Cl            1.00      1 F:z2x           7
                        (      34.044 eV)
   297     297       --         1.251 au  Cl            1.00      1 F:z2y           7
                        (      34.044 eV)
   298     298       --         1.251 au  Cl            1.00      1 F:x             7
                        (      34.044 eV)
   299     299       --         1.251 au  Cl            1.00      1 F:y             7
                        (      34.044 eV)
   300     300      2.000    -102.119 au  Cl            1.00      1 S               8
                        (   -2778.789 eV)
   301     301      2.000      -9.646 au  Cl            1.00      2 S               8
                        (    -262.471 eV)
   302     302      2.000      -0.854 au  Cl            1.00      3 S               8
                        (     -23.229 eV)
   303     303       --         0.235 au  Cl            1.00      4 S               8
                        (       6.405 eV)
   304     304       --         2.083 au  Cl            1.00      5 S               8
                        (      56.675 eV)
   305     305       --        12.853 au  Cl            1.00      6 S               8
                        (     349.740 eV)
   306     306       --       206.451 au  Cl            1.00      7 S               8
                        (    5617.823 eV)
   307     307      2.000      -7.311 au  Cl            1.00      1 P:x             8
                        (    -198.932 eV)
   308     308      1.667      -0.356 au  Cl            1.00      2 P:x             8
                        (      -9.674 eV)
   309     309       --         0.265 au  Cl            1.00      3 P:x             8
                        (       7.199 eV)
   310     310       --         2.208 au  Cl            1.00      4 P:x             8
                        (      60.081 eV)
   311     311       --        19.015 au  Cl            1.00      5 P:x             8
                        (     517.415 eV)
   312     312      2.000      -7.311 au  Cl            1.00      1 P:y             8
                        (    -198.932 eV)
   313     313      1.667      -0.356 au  Cl            1.00      2 P:y             8
                        (      -9.674 eV)
   314     314       --         0.265 au  Cl            1.00      3 P:y             8
                        (       7.199 eV)
   315     315       --         2.208 au  Cl            1.00      4 P:y             8
                        (      60.081 eV)
   316     316       --        19.015 au  Cl            1.00      5 P:y             8
                        (     517.415 eV)
   317     317      2.000      -7.311 au  Cl            1.00      1 P:z             8
                        (    -198.932 eV)
   318     318      1.667      -0.356 au  Cl            1.00      2 P:z             8
                        (      -9.674 eV)
   319     319       --         0.265 au  Cl            1.00      3 P:z             8
                        (       7.199 eV)
   320     320       --         2.208 au  Cl            1.00      4 P:z             8
                        (      60.081 eV)
   321     321       --        19.015 au  Cl            1.00      5 P:z             8
                        (     517.415 eV)
   322     322       --         0.444 au  Cl            1.00      1 D:z2            8
                        (      12.084 eV)
   323     323       --         0.444 au  Cl            1.00      1 D:x2-y2         8
                        (      12.084 eV)
   324     324       --         0.444 au  Cl            1.00      1 D:xy            8
                        (      12.084 eV)
   325     325       --         0.444 au  Cl            1.00      1 D:xz            8
                        (      12.084 eV)
   326     326       --         0.444 au  Cl            1.00      1 D:yz            8
                        (      12.084 eV)
   327     327       --         1.251 au  Cl            1.00      1 F:z3            8
                        (      34.044 eV)
   328     328       --         1.251 au  Cl            1.00      1 F:z             8
                        (      34.044 eV)
   329     329       --         1.251 au  Cl            1.00      1 F:xyz           8
                        (      34.044 eV)
   330     330       --         1.251 au  Cl            1.00      1 F:z2x           8
                        (      34.044 eV)
   331     331       --         1.251 au  Cl            1.00      1 F:z2y           8
                        (      34.044 eV)
   332     332       --         1.251 au  Cl            1.00      1 F:x             8
                        (      34.044 eV)
   333     333       --         1.251 au  Cl            1.00      1 F:y             8
                        (      34.044 eV)
   334     334      1.000      -0.242 au  H             1.00      1 S               9
                        (      -6.582 eV)
   335     335       --         0.113 au  H             1.00      2 S               9
                        (       3.073 eV)
   336     336       --         1.599 au  H             1.00      3 S               9
                        (      43.500 eV)
   337     337       --         0.445 au  H             1.00      1 P:x             9
                        (      12.103 eV)
   338     338       --         0.445 au  H             1.00      1 P:y             9
                        (      12.103 eV)
   339     339       --         0.445 au  H             1.00      1 P:z             9
                        (      12.103 eV)
   340     340       --         2.628 au  H             1.00      1 D:z2            9
                        (      71.505 eV)
   341     341       --         2.628 au  H             1.00      1 D:x2-y2         9
                        (      71.505 eV)
   342     342       --         2.628 au  H             1.00      1 D:xy            9
                        (      71.505 eV)
   343     343       --         2.628 au  H             1.00      1 D:xz            9
                        (      71.505 eV)
   344     344       --         2.628 au  H             1.00      1 D:yz            9
                        (      71.505 eV)
   345     345      1.000      -0.242 au  H             1.00      1 S              10
                        (      -6.582 eV)
   346     346       --         0.113 au  H             1.00      2 S              10
                        (       3.073 eV)
   347     347       --         1.599 au  H             1.00      3 S              10
                        (      43.500 eV)
   348     348       --         0.445 au  H             1.00      1 P:x            10
                        (      12.103 eV)
   349     349       --         0.445 au  H             1.00      1 P:y            10
                        (      12.103 eV)
   350     350       --         0.445 au  H             1.00      1 P:z            10
                        (      12.103 eV)
   351     351       --         2.628 au  H             1.00      1 D:z2           10
                        (      71.505 eV)
   352     352       --         2.628 au  H             1.00      1 D:x2-y2        10
                        (      71.505 eV)
   353     353       --         2.628 au  H             1.00      1 D:xy           10
                        (      71.505 eV)
   354     354       --         2.628 au  H             1.00      1 D:xz           10
                        (      71.505 eV)
   355     355       --         2.628 au  H             1.00      1 D:yz           10
                        (      71.505 eV)
   356     356      1.000      -0.242 au  H             1.00      1 S              11
                        (      -6.582 eV)
   357     357       --         0.113 au  H             1.00      2 S              11
                        (       3.073 eV)
   358     358       --         1.599 au  H             1.00      3 S              11
                        (      43.500 eV)
   359     359       --         0.445 au  H             1.00      1 P:x            11
                        (      12.103 eV)
   360     360       --         0.445 au  H             1.00      1 P:y            11
                        (      12.103 eV)
   361     361       --         0.445 au  H             1.00      1 P:z            11
                        (      12.103 eV)
   362     362       --         2.628 au  H             1.00      1 D:z2           11
                        (      71.505 eV)
   363     363       --         2.628 au  H             1.00      1 D:x2-y2        11
                        (      71.505 eV)
   364     364       --         2.628 au  H             1.00      1 D:xy           11
                        (      71.505 eV)
   365     365       --         2.628 au  H             1.00      1 D:xz           11
                        (      71.505 eV)
   366     366       --         2.628 au  H             1.00      1 D:yz           11
                        (      71.505 eV)
   367     367      1.000      -0.242 au  H             1.00      1 S              12
                        (      -6.582 eV)
   368     368       --         0.113 au  H             1.00      2 S              12
                        (       3.073 eV)
   369     369       --         1.599 au  H             1.00      3 S              12
                        (      43.500 eV)
   370     370       --         0.445 au  H             1.00      1 P:x            12
                        (      12.103 eV)
   371     371       --         0.445 au  H             1.00      1 P:y            12
                        (      12.103 eV)
   372     372       --         0.445 au  H             1.00      1 P:z            12
                        (      12.103 eV)
   373     373       --         2.628 au  H             1.00      1 D:z2           12
                        (      71.505 eV)
   374     374       --         2.628 au  H             1.00      1 D:x2-y2        12
                        (      71.505 eV)
   375     375       --         2.628 au  H             1.00      1 D:xy           12
                        (      71.505 eV)
   376     376       --         2.628 au  H             1.00      1 D:xz           12
                        (      71.505 eV)
   377     377       --         2.628 au  H             1.00      1 D:yz           12
                        (      71.505 eV)
   378     378      1.000      -0.242 au  H             1.00      1 S              13
                        (      -6.582 eV)
   379     379       --         0.113 au  H             1.00      2 S              13
                        (       3.073 eV)
   380     380       --         1.599 au  H             1.00      3 S              13
                        (      43.500 eV)
   381     381       --         0.445 au  H             1.00      1 P:x            13
                        (      12.103 eV)
   382     382       --         0.445 au  H             1.00      1 P:y            13
                        (      12.103 eV)
   383     383       --         0.445 au  H             1.00      1 P:z            13
                        (      12.103 eV)
   384     384       --         2.628 au  H             1.00      1 D:z2           13
                        (      71.505 eV)
   385     385       --         2.628 au  H             1.00      1 D:x2-y2        13
                        (      71.505 eV)
   386     386       --         2.628 au  H             1.00      1 D:xy           13
                        (      71.505 eV)
   387     387       --         2.628 au  H             1.00      1 D:xz           13
                        (      71.505 eV)
   388     388       --         2.628 au  H             1.00      1 D:yz           13
                        (      71.505 eV)
   389     389      1.000      -0.242 au  H             1.00      1 S              14
                        (      -6.582 eV)
   390     390       --         0.113 au  H             1.00      2 S              14
                        (       3.073 eV)
   391     391       --         1.599 au  H             1.00      3 S              14
                        (      43.500 eV)
   392     392       --         0.445 au  H             1.00      1 P:x            14
                        (      12.103 eV)
   393     393       --         0.445 au  H             1.00      1 P:y            14
                        (      12.103 eV)
   394     394       --         0.445 au  H             1.00      1 P:z            14
                        (      12.103 eV)
   395     395       --         2.628 au  H             1.00      1 D:z2           14
                        (      71.505 eV)
   396     396       --         2.628 au  H             1.00      1 D:x2-y2        14
                        (      71.505 eV)
   397     397       --         2.628 au  H             1.00      1 D:xy           14
                        (      71.505 eV)
   398     398       --         2.628 au  H             1.00      1 D:xz           14
                        (      71.505 eV)
   399     399       --         2.628 au  H             1.00      1 D:yz           14
                        (      71.505 eV)
   400     400      1.000      -0.242 au  H             1.00      1 S              15
                        (      -6.582 eV)
   401     401       --         0.113 au  H             1.00      2 S              15
                        (       3.073 eV)
   402     402       --         1.599 au  H             1.00      3 S              15
                        (      43.500 eV)
   403     403       --         0.445 au  H             1.00      1 P:x            15
                        (      12.103 eV)
   404     404       --         0.445 au  H             1.00      1 P:y            15
                        (      12.103 eV)
   405     405       --         0.445 au  H             1.00      1 P:z            15
                        (      12.103 eV)
   406     406       --         2.628 au  H             1.00      1 D:z2           15
                        (      71.505 eV)
   407     407       --         2.628 au  H             1.00      1 D:x2-y2        15
                        (      71.505 eV)
   408     408       --         2.628 au  H             1.00      1 D:xy           15
                        (      71.505 eV)
   409     409       --         2.628 au  H             1.00      1 D:xz           15
                        (      71.505 eV)
   410     410       --         2.628 au  H             1.00      1 D:yz           15
                        (      71.505 eV)



 ================================
 (Slater-type)  F U N C T I O N S  ***  (Basis and Fit)  ***
 ================================
  

 Atom Type    1  (Pa)
 ==============

 Valence Basis Sets:  43
 -----------------------
   1 S 1028.000000
   1 S  240.000000
   1 S  107.000000
   2 S  131.500000
   2 S   46.500000
   3 S   59.100000
   3 S   25.450000
   4 S   15.550000
   4 S   11.050000
   5 S   10.200000
   5 S    7.100000
   6 S    4.950000
   6 S    3.250000
   7 S    2.350000
   7 S    1.550000
   7 S    1.020000
   2 P  240.000000
   2 P   84.000000
   2 P   43.600000
   3 P   24.750000
   3 P   17.850000
   4 P   17.650000
   4 P   12.100000
   5 P    8.500000
   5 P    5.900000
   6 P    4.400000
   6 P    3.000000
   6 P    2.100000
   3 D   33.750000
   3 D   21.750000
   4 D   15.300000
   4 D   10.450000
   5 D    7.150000
   5 D    4.600000
   6 D    3.000000
   6 D    1.700000
   6 D    0.980000
   4 F   17.100000
   4 F    9.350000
   5 F    5.850000
   5 F    3.150000
   5 F    1.550000
   7 P    1.550000

 Charge Fitting Sets (for the computation of the Coulomb Potential):  87
 -----------------------------------------------------------------------
   1 S 2056.000000
   1 S 1549.519000
   1 S 1167.806000
   1 S  880.126000
   1 S  663.313000
   1 S  499.911000
   1 S  376.761000
   1 S  283.949000
   1 S  214.000000
   1 S  127.280000
   2 S  140.220000
   2 S   93.850000
   3 S   92.230000
   3 S   65.710000
   4 S   61.900000
   4 S   45.910000
   5 S   42.420000
   5 S   32.370000
   6 S   29.610000
   6 S   23.090000
   7 S   21.000000
   7 S   16.670000
   8 S   15.120000
   8 S   12.170000
   9 S   11.020000
   9 S    8.970000
  10 S    8.120000
  10 S    6.680000
  11 S    6.050000
  11 S    5.020000
  12 S    4.550000
  12 S    3.800000
  12 S    3.180000
  13 S    2.880000
  13 S    2.420000
  13 S    2.040000
   2 P  150.600000
   3 P  125.870000
   4 P  103.260000
   5 P   84.350000
   6 P   68.960000
   7 P   56.560000
   7 P   40.600000
   8 P   33.430000
   8 P   24.490000
   9 P   20.250000
   9 P   15.090000
  10 P   12.530000
  10 P    9.470000
  11 P    7.900000
  11 P    6.040000
  12 P    5.060000
  12 P    3.910000
  13 P    3.290000
  13 P    2.570000
   3 D  128.750000
   4 D   91.090000
   5 D   65.210000
   6 D   47.270000
   7 D   34.690000
   8 D   25.740000
   9 D   19.290000
   9 D   13.060000
  10 D    9.880000
  10 D    6.820000
  11 D    5.210000
  11 D    3.650000
  12 D    2.810000
  12 D    2.000000
   4 F  116.350000
   5 F   72.360000
   6 F   46.140000
   7 F   30.070000
   8 F   19.970000
   9 F   13.480000
  10 F    9.240000
  10 F    5.790000
  11 F    4.020000
  11 F    2.570000
   5 G   52.950000
   6 G   31.380000
   7 G   19.110000
   8 G   11.920000
   9 G    7.580000
  10 G    4.910000
  11 G    3.230000
  11 G    1.960000

 Atom Type    2  (O)
 ==============

 Valence Basis Sets:  10
 -----------------------
   1 S    9.800000
   1 S    6.800000
   2 S    7.580000
   2 S    2.880000
   2 S    1.720000
   2 P    4.080000
   2 P    2.080000
   2 P    1.120000
   3 D    2.000000
   4 F    3.000000

 Charge Fitting Sets (for the computation of the Coulomb Potential):  22
 -----------------------------------------------------------------------
   1 S   19.600000
   2 S   22.600000
   2 S   15.680000
   2 S   10.890000
   2 S    7.560000
   3 S    7.690000
   3 S    5.650000
   3 S    4.150000
   3 S    3.050000
   3 S    2.240000
   2 P   12.860000
   2 P    7.680000
   3 P    6.780000
   3 P    4.390000
   3 P    2.840000
   3 D    8.800000
   3 D    5.580000
   3 D    3.530000
   3 D    2.240000
   4 F    6.200000
   4 F    3.700000
   5 G    4.500000

 Atom Type    3  (Cl)
 ==============

 Valence Basis Sets:  14
 -----------------------
   1 S   20.300000
   1 S   15.250000
   2 S    6.250000
   2 S    4.450000
   2 P    8.850000
   2 P    5.050000
   3 S    3.450000
   3 S    2.300000
   3 S    1.600000
   3 P    3.350000
   3 P    2.050000
   3 P    1.200000
   3 D    2.000000
   4 F    2.000000

 Charge Fitting Sets (for the computation of the Coulomb Potential):  30
 -----------------------------------------------------------------------
   1 S   40.600000
   1 S   24.830000
   2 S   28.080000
   2 S   19.200000
   3 S   19.250000
   3 S   13.970000
   3 S   10.130000
   4 S    9.710000
   4 S    7.320000
   4 S    5.510000
   5 S    5.170000
   5 S    4.000000
   5 S    3.100000
   5 S    2.400000
   2 P   29.150000
   3 P   21.740000
   4 P   16.160000
   4 P    9.600000
   5 P    7.180000
   5 P    4.480000
   5 P    2.800000
   3 D   21.950000
   4 D   15.750000
   4 D    9.040000
   5 D    6.550000
   5 D    3.960000
   5 D    2.400000
   4 F    5.000000
   4 F    3.000000
   5 G    3.500000

 Atom Type    4  (H)
 ==============

 Valence Basis Sets:   5
 -----------------------
   1 S    0.690000
   1 S    0.920000
   1 S    1.580000
   2 P    1.250000
   3 D    2.500000

 Charge Fitting Sets (for the computation of the Coulomb Potential):  11
 -----------------------------------------------------------------------
   1 S    3.160000
   1 S    2.090000
   1 S    1.380000
   2 S    1.500000
   2 P    4.000000
   2 P    2.650000
   2 P    1.750000
   3 D    4.000000
   3 D    2.500000
   4 F    3.000000
   5 G    4.000000


 BAS: List of all Elementary Cartesian Basis Functions
 =====================================================

 The numbering in the list below (to the right of the function characteristics) is referred
 to in print-outs of MO eigenvectors and Mulliken populations in the BAS representation
 (as contrasted to the SFO representation).

 Notes:
 1. The functions are characterized by a polynomial prefactor (powers of x,y,z and r) and
    an exponential decay factor alpha.
 2. Since the basis sets are specific for an atom TYPE, the individual functions occur on
    all atoms of that type.
 3. The word 'Core' in the left margin signals that it is a Core Function (CF) : not a
    degree of freedom in the valence set, but only used to ensure orthogonalization of
    the other valence basis functions on the frozen Core Orbitals.


 (power of) X  Y  Z  R     Alpha  on Atom
            ==========     =====     ==========

 Pa                                   1
                                  ---------------------------------------------------------------------------
            0  0  0  0  1028.000      1
            0  0  0  0   240.000      2
            0  0  0  0   107.000      3
            0  0  0  1   131.500      4
            0  0  0  1    46.500      5
            0  0  0  2    59.100      6
            0  0  0  2    25.450      7
            0  0  0  3    15.550      8
            0  0  0  3    11.050      9
            0  0  0  4    10.200     10
            0  0  0  4     7.100     11
            0  0  0  5     4.950     12
            0  0  0  5     3.250     13
            0  0  0  6     2.350     14
            0  0  0  6     1.550     15
            0  0  0  6     1.020     16
            1  0  0  0   240.000     17
            0  1  0  0   240.000     18
            0  0  1  0   240.000     19
            1  0  0  0    84.000     20
            0  1  0  0    84.000     21
            0  0  1  0    84.000     22
            1  0  0  0    43.600     23
            0  1  0  0    43.600     24
            0  0  1  0    43.600     25
            1  0  0  1    24.750     26
            0  1  0  1    24.750     27
            0  0  1  1    24.750     28
            1  0  0  1    17.850     29
            0  1  0  1    17.850     30
            0  0  1  1    17.850     31
            1  0  0  2    17.650     32
            0  1  0  2    17.650     33
            0  0  1  2    17.650     34
            1  0  0  2    12.100     35
            0  1  0  2    12.100     36
            0  0  1  2    12.100     37
            1  0  0  3     8.500     38
            0  1  0  3     8.500     39
            0  0  1  3     8.500     40
            1  0  0  3     5.900     41
            0  1  0  3     5.900     42
            0  0  1  3     5.900     43
            1  0  0  4     4.400     44
            0  1  0  4     4.400     45
            0  0  1  4     4.400     46
            1  0  0  4     3.000     47
            0  1  0  4     3.000     48
            0  0  1  4     3.000     49
            1  0  0  4     2.100     50
            0  1  0  4     2.100     51
            0  0  1  4     2.100     52
            2  0  0  0    33.750     53
            1  1  0  0    33.750     54
            1  0  1  0    33.750     55
            0  2  0  0    33.750     56
            0  1  1  0    33.750     57
            0  0  2  0    33.750     58
            2  0  0  0    21.750     59
            1  1  0  0    21.750     60
            1  0  1  0    21.750     61
            0  2  0  0    21.750     62
            0  1  1  0    21.750     63
            0  0  2  0    21.750     64
            2  0  0  1    15.300     65
            1  1  0  1    15.300     66
            1  0  1  1    15.300     67
            0  2  0  1    15.300     68
            0  1  1  1    15.300     69
            0  0  2  1    15.300     70
            2  0  0  1    10.450     71
            1  1  0  1    10.450     72
            1  0  1  1    10.450     73
            0  2  0  1    10.450     74
            0  1  1  1    10.450     75
            0  0  2  1    10.450     76
            2  0  0  2     7.150     77
            1  1  0  2     7.150     78
            1  0  1  2     7.150     79
            0  2  0  2     7.150     80
            0  1  1  2     7.150     81
            0  0  2  2     7.150     82
            2  0  0  2     4.600     83
            1  1  0  2     4.600     84
            1  0  1  2     4.600     85
            0  2  0  2     4.600     86
            0  1  1  2     4.600     87
            0  0  2  2     4.600     88
            2  0  0  3     3.000     89
[...]
                                    1.52%     4 D:z2           -1.800  0.20     1 Pa
                                    1.31%     1 P:x            -9.955  1.33     2 O
                                    1.18%     1 P:y            -9.955  1.33     6 O
                                    1.05%     1 S              -6.582  1.00    10 H
                                   -1.02%     2 P:y            10.811  0.00     4 O
       3.722  0.00   109 A         45.26%     7 S              -4.760  2.00     1 Pa
                                   35.82%     8 S               0.919  0.00     1 Pa
                                   -5.46%     3 P:x             7.199  0.00     8 Cl
                                    4.07%     5 D:yz            2.364  0.00     1 Pa
                                    3.94%     6 P:y            -0.239  0.00     1 Pa
                                   -3.54%     2 P:x            10.811  0.00     6 O
                                    3.15%     2 P:x            -9.674  1.67     8 Cl
                                   -3.09%     3 S              23.286  0.00     4 O
                                    2.91%     9 S               9.238  0.00     1 Pa
                                   -2.71%     3 P:y             7.199  0.00     7 Cl
                                    2.66%     6 P:x            -0.239  0.00     1 Pa
                                    2.21%     5 D:xz            2.364  0.00     1 Pa
                                    2.10%     1 S              -6.582  1.00    10 H
                                   -2.05%     2 P:y            10.811  0.00     4 O
                                    1.77%     1 P:y            -9.955  1.33     5 O
                                   -1.76%     3 P:z             7.199  0.00     7 Cl
                                    1.71%     2 P:z            10.811  0.00     5 O
                                    1.71%     2 P:y            -9.674  1.67     7 Cl
                                    1.69%     2 S             -27.198  2.00     4 O
                                   -1.55%     1 S              -6.582  1.00     9 H
                                    1.44%     2 S               3.073  0.00    10 H
                                   -1.42%     3 S              23.286  0.00     6 O
                                    1.41%     5 D:z2            2.364  0.00     1 Pa
                                    1.39%     1 S              -6.582  1.00    14 H
                                   -1.36%     3 P:z             7.199  0.00     8 Cl
                                    1.21%     1 S              -6.582  1.00    13 H
                                    1.17%     6 P:z            -0.239  0.00     1 Pa
                                    1.09%     2 S               3.073  0.00    11 H
                                   -1.02%     4 S               6.405  0.00     8 Cl
       4.118  0.00   110 A         44.85%     5 D:x2-y2         2.364  0.00     1 Pa
                                   29.79%     5 D:xy            2.364  0.00     1 Pa
                                   21.67%     7 S              -4.760  2.00     1 Pa
                                  -20.19%     2 S               3.073  0.00    15 H
                                  -19.93%     2 S               3.073  0.00    14 H
                                   17.42%     1 S              -6.582  1.00    14 H
                                   17.26%     1 S              -6.582  1.00    15 H
                                    8.53%     4 D:xy           -1.800  0.20     1 Pa
                                    5.82%     4 D:x2-y2        -1.800  0.20     1 Pa
                                   -4.51%     8 S               0.919  0.00     1 Pa
                                    4.10%     4 D:z2           -1.800  0.20     1 Pa
                                   -4.00%     2 S               3.073  0.00    10 H
                                    3.57%     1 S              -6.582  1.00    10 H
                                   -2.63%     3 P:y             7.199  0.00     8 Cl
                                    2.56%     3 S              43.500  0.00    14 H
                                   -2.11%     4 S               6.405  0.00     8 Cl
                                   -2.10%     2 P:x            10.811  0.00     2 O
                                    1.97%     5 D:yz            2.364  0.00     1 Pa
                                   -1.80%     5 D:z2            2.364  0.00     1 Pa
                                   -1.80%     9 S               9.238  0.00     1 Pa
                                    1.79%     3 S              43.500  0.00    15 H
                                   -1.50%     2 P:z            10.811  0.00     4 O
                                    1.49%     1 P:y            -9.955  1.33     6 O
                                    1.31%     1 P:x            -9.955  1.33     2 O
                                   -1.30%     2 P:y            10.811  0.00     3 O
                                   -1.27%     2 P:y            10.811  0.00     6 O
                                    1.26%     1 S              -6.582  1.00     9 H
                                   -1.15%     2 P:x            10.811  0.00     6 O
                                   -1.14%     2 P:z            10.811  0.00     3 O
                                    1.14%     1 P:z            -9.955  1.33     4 O
                                    1.04%     4 D:yz           -1.800  0.20     1 Pa



 =======================================================================
 Electrostatic potential at the Nuclei due to electrons and other nuclei
 =======================================================================
  
         Atom                  Potential
         ----                  ---------
     1)   Pa                787.40699083
     2)   O                  22.32460107
     3)   O                  22.37829034
     4)   Cl                 64.94294985
     5)   H                   0.96846622
     6)   O                  22.28666462
     7)   H                   0.91042448
     8)   H                   0.91093962
     9)   H                   0.95082302
    10)   O                  22.43022206
    11)   Cl                 64.93922950
    12)   H                   0.93826941
    13)   H                   0.95031933
    14)   O                  22.31237500
    15)   H                   0.93470182
 Mulliken charges used for AMS results%charges...


    =====================
     CALCULATION RESULTS
    =====================

Energy (hartree)            -3.86918830


--------------
Atomic charges
--------------
  Index   Atom    Charge
      1     Pa    2.1040
      2      O   -0.3827
      3      O   -0.6040
      4     Cl   -0.5272
      5      H    0.0856
      6      O   -0.4242
      7      H    0.2304
      8      H    0.2460
      9      H    0.2192
     10      O   -0.7018
     11     Cl   -0.5110
     12      H    0.2289
     13      H    0.2205
     14      O   -0.3915
     15      H    0.2079


Dipole moment vector    (Debye):    -3.33432970   -3.22217417   -3.00431681
              magnitude (Debye):     5.52504121


-----------------------
Molecular orbitals info
-----------------------
n orbitals:              410
n spin:                    1

Note: only printing virtual orbitals with
      energy smaller than HOMO + 100. eV

HOMO (eV):              -7.4404
LUMO (eV):              -1.2138
HOMO-LUMO gap (eV):      6.2266

   Index   Energy (eV)    Occupation
     274       91.8896         0.000       
     273       91.0203         0.000       
     272       89.8869         0.000       
     271       88.5715         0.000       
     270       87.8901         0.000       
     269       87.2683         0.000       
     268       86.0825         0.000       
     267       85.3080         0.000       
     266       84.8536         0.000       
     265       84.0971         0.000       
     264       83.6133         0.000       
     263       83.0946         0.000       
     262       82.5268         0.000       
     261       81.8324         0.000       
     260       81.6071         0.000       
     259       80.3355         0.000       
     258       79.0847         0.000       
     257       77.8106         0.000       
     256       77.4736         0.000       
     255       76.9260         0.000       
     254       76.2059         0.000       
     253       75.7259         0.000       
     252       74.5389         0.000       
     251       73.7305         0.000       
     250       73.3533         0.000       
     249       73.0880         0.000       
     248       72.3715         0.000       
     247       71.8364         0.000       
     246       71.5340         0.000       
     245       71.2415         0.000       
     244       70.5369         0.000       
     243       70.1270         0.000       
     242       69.5905         0.000       
     241       69.2215         0.000       
     240       68.9565         0.000       
     239       67.5434         0.000       
     238       64.4809         0.000       
     237       63.6480         0.000       
     236       63.0401         0.000       
     235       62.5330         0.000       
     234       61.5802         0.000       
     233       60.6700         0.000       
     232       59.8094         0.000       
     231       59.6379         0.000       
     230       58.0235         0.000       
     229       55.6342         0.000       
     228       55.5115         0.000       
     227       54.9475         0.000       
     226       54.6319         0.000       
     225       53.2302         0.000       
     224       52.6750         0.000       
     223       52.0611         0.000       
     222       51.1587         0.000       
     221       50.2515         0.000       
     220       49.2840         0.000       
     219       48.3811         0.000       
     218       47.3760         0.000       
     217       47.1029         0.000       
     216       46.7116         0.000       
     215       46.2471         0.000       
     214       45.7960         0.000       
     213       43.8758         0.000       
     212       43.4248         0.000       
     211       43.0890         0.000       
     210       42.5037         0.000       
     209       41.7686         0.000       
     208       41.5943         0.000       
     207       41.1121         0.000       
     206       40.5246         0.000       
     205       40.2069         0.000       
     204       39.6752         0.000       
     203       39.3455         0.000       
     202       39.3032         0.000       
     201       38.9004         0.000       
     200       38.6598         0.000       
     199       38.2014         0.000       
     198       38.0383         0.000       
     197       38.0070         0.000       
     196       37.6513         0.000       
     195       37.5619         0.000       
     194       37.2935         0.000       
     193       37.0629         0.000       
     192       36.7643         0.000       
     191       36.4477         0.000       
     190       36.2593         0.000       
     189       36.0245         0.000       
     188       35.6620         0.000       
     187       35.4185         0.000       
     186       34.7417         0.000       
     185       34.4318         0.000       
     184       34.1362         0.000       
     183       33.7286         0.000       
     182       33.5194         0.000       
     181       32.6792         0.000       
     180       32.1422         0.000       
     179       32.0774         0.000       
     178       31.0540         0.000       
     177       30.2366         0.000       
     176       29.4624         0.000       
     175       29.2203         0.000       
     174       28.1623         0.000       
     173       27.5664         0.000       
     172       26.9622         0.000       
     171       26.2546         0.000       
     170       25.5975         0.000       
     169       24.7092         0.000       
     168       24.2668         0.000       
     167       23.6591         0.000       
     166       22.7044         0.000       
     165       22.5134         0.000       
     164       22.1968         0.000       
     163       21.6680         0.000       
     162       21.2328         0.000       
     161       20.2791         0.000       
     160       20.0720         0.000       
     159       19.9687         0.000       
     158       19.5473         0.000       
     157       19.1810         0.000       
     156       18.9495         0.000       
     155       18.3528         0.000       
     154       18.0777         0.000       
     153       17.1023         0.000       
     152       16.8352         0.000       
     151       16.5825         0.000       
     150       16.5157         0.000       
     149       16.2532         0.000       
     148       15.9620         0.000       
     147       15.5143         0.000       
     146       15.4682         0.000       
     145       15.0128         0.000       
     144       14.8366         0.000       
     143       14.4918         0.000       
     142       14.4372         0.000       
     141       14.2696         0.000       
     140       14.1420         0.000       
     139       13.9569         0.000       
     138       13.8013         0.000       
     137       13.7330         0.000       
     136       12.9701         0.000       
     135       12.5286         0.000       
     134       12.3484         0.000       
     133       12.3390         0.000       
     132       11.7491         0.000       
     131       11.6154         0.000       
     130       11.3777         0.000       
     129       11.0642         0.000       
     128       10.7680         0.000       
     127       10.5380         0.000       
     126       10.0925         0.000       
     125        9.7683         0.000       
     124        9.6888         0.000       
     123        9.4213         0.000       
     122        9.1045         0.000       
     121        8.4219         0.000       
     120        8.3325         0.000       
     119        7.8583         0.000       
     118        7.5938         0.000       
     117        7.0070         0.000       
     116        6.5232         0.000       
     115        6.3684         0.000       
     114        5.6599         0.000       
     113        5.5076         0.000       
     112        5.0701         0.000       
     111        4.3543         0.000       
     110        4.1179         0.000       
     109        3.7220         0.000       
     108        3.3711         0.000       
     107        3.1960         0.000       
     106        2.8476         0.000       
     105        2.6285         0.000       
     104        2.4447         0.000       
     103        2.3761         0.000       
     102        2.0645         0.000       
     101        1.9272         0.000       
     100        1.8026         0.000       
      99        1.5866         0.000       
      98        1.2467         0.000       
      97        1.0494         0.000       
      96        0.4003         0.000       
      95        0.0519         0.000       
      94       -0.0554         0.000       
      93       -0.2904         0.000       
      92       -0.5000         0.000       
      91       -1.0866         0.000       
      90       -1.1166         0.000       
      89       -1.1730         0.000       
      88       -1.2015         0.000       
      87       -1.2138         0.000 < LUMO
      86       -7.4404         2.000 < HOMO
      85       -7.5875         2.000       
      84       -7.8115         2.000       
      83       -7.8577         2.000       
      82       -7.9642         2.000       
      81       -8.3458         2.000       
      80       -8.7856         2.000       
      79       -9.2723         2.000       
      78       -9.3393         2.000       
      77      -10.0231         2.000       
      76      -10.2218         2.000       
      75      -10.8701         2.000       
      74      -11.1504         2.000       
      73      -11.7827         2.000       
      72      -12.9721         2.000       
      71      -13.4473         2.000       
      70      -13.5908         2.000       
      69      -14.3191         2.000       
      68      -16.4489         2.000       
      67      -16.8466         2.000       
      66      -17.4324         2.000       
      65      -20.4131         2.000       
      64      -20.7367         2.000       
      63      -20.8048         2.000       
      62      -24.9686         2.000       
      61      -25.1999         2.000       
      60      -27.0759         2.000       
      59      -29.9577         2.000       
      58      -30.1054         2.000       
      57      -30.3104         2.000       
      56      -31.0128         2.000       
      55      -49.6743         2.000       
      54      -99.3571         2.000       
      53      -99.4123         2.000       
      52      -99.4209         2.000       
      51      -99.5641         2.000       
      50      -99.5653         2.000       
      49     -195.3039         2.000       
      48     -195.3220         2.000       
      47     -195.3461         2.000       
      46     -195.4086         2.000       
      45     -195.4235         2.000       
      44     -195.4466         2.000       
      43     -206.4336         2.000       
      42     -206.8055         2.000       
      41     -206.8148         2.000       
      40     -258.8735         2.000       
      39     -258.9758         2.000       
      38     -305.1953         2.000       
      37     -360.3759         2.000       
      36     -360.4163         2.000       
      35     -360.4297         2.000       
      34     -360.6050         2.000       
      33     -360.6066         2.000       
      32     -360.8012         2.000       
      31     -360.8022         2.000       
      30     -522.1618         2.000       
      29     -523.2591         2.000       
      28     -524.5914         2.000       
      27     -524.9304         2.000       
      26     -525.6053         2.000       
      25     -712.1808         2.000       
      24     -712.3681         2.000       
      23     -712.3828         2.000       
      22     -712.6437         2.000       
      21     -712.6469         2.000       
      20    -1040.4445         2.000       
      19    -1040.8783         2.000       
      18    -1040.9025         2.000       
      17    -1358.9195         2.000       
      16    -2775.0788         2.000       
      15    -2775.1806         2.000       
      14    -3484.1013         2.000       
      13    -3484.1747         2.000       
      12    -3484.1795         2.000       
      11    -3484.3003         2.000       
      10    -3484.3016         2.000       
       9    -4346.2935         2.000       
       8    -4346.5370         2.000       
       7    -4346.5479         2.000       
       6    -5317.5199         2.000       
       5   -17560.4934         2.000       
       4   -17560.5288         2.000       
       3   -17560.5298         2.000       
       2   -21036.3175         2.000       
       1  -112698.2033         2.000       

AMS application finished. Exiting.
NORMAL TERMINATION
     Total cpu time:     717.94
  Total system time:     509.29
 Total elapsed time:    1494.32
 WARNING: total system time is high compared to CPU time. 
 Make sure the machine is not oversubscribed and has enough memory, SCM_TMPDIR p
 oints to a fast file system, and the network is fast enough.
