

 Parallel Execution: Process Information
 ==============================================================================
 Rank   Node Name                              NodeID   MyNodeRank  NodeMaster
    0   u-0-11.local                              0          0          0
    1   u-0-11.local                              0          1         -1
    2   u-0-11.local                              1          0          1
    3   u-0-11.local                              1          1         -1
    4   u-0-11.local                              2          0          2
    5   u-0-11.local                              2          1         -1
    6   u-0-11.local                              3          0          3
    7   u-0-11.local                              3          1         -1
 ==============================================================================


May use up to 31200MB of RAM as shared memory on node 0
May use up to 31250MB of RAM as shared memory on node 1
May use up to 31250MB of RAM as shared memory on node 2
May use up to 31250MB of RAM as shared memory on node 3

 *******************************************************************************
 *                                                                             *
 *  --------------------------------                                           *
 *   Amsterdam Modeling Suite (AMS)              2024.102                      *
 *  --------------------------------                                           *
 *                                               r122055 2024-06-07            *
 *                                                                             *
 *                                                                             *
 *                              =================                              *
 *                              |               |                              *
 *                              |     A M S     |                              *
 *                              |               |                              *
 *                              =================                              *
 *                                                                             *
 *                                                                             *
 *   Online information and documentation:  https://www.scm.com/support/       *
 *   E-mail:  support@scm.com   info@scm.com                                   *
 *                                                                             *
 *   Scientific publications using AMS results must be properly referenced     *
 *   See the User Manuals (or the web site) for recommended citations          *
 *   The terms and conditions of the End User License Agreement apply to       *
 *   the use of AMS, https://www.scm.com/license-terms/                        *
 *                                                                             *
 **********************  x86_64_linux_intel / intelmpi  ************************
 
 Licensed to: Dr. Val?rie Vallet / Laboratoire PhLAM UMR 8523 / Villeneuve d'Ascq Cedex / FRANCE 2024-02-19 16:59:55
 SCM User ID: u10325
  
 AMS 2024.102  RunTime: Jul27-2024 13:12:31  ShM Nodes: 4  Procs: 8

 AMS jobname: pa_cl6_oh.SR.pbe0.tz2p.opt-freq
 AMS jobid  : 1746144730

 Start   directory: /home/shaaban/ams/PhD/geometries-exafs/pa_cl6_oh/
 Results directory: /home/shaaban/ams/PhD/geometries-exafs/pa_cl6_oh/pa_cl6_oh.SR.pbe0.tz2p.opt-freq.results/
 Scratch directory: /state/partition2/shaaban/1025719.phlam-s-sakura/amstmp_pa_cl6_oh.SR.pbe0.tz2p.opt-freq_kid0.1746144730/


 Communication costs MPI_COMM_WORLD:      1.571 usec per message,   0.0104 usec per 8-byte item
 Communication costs for intra-node:      0.387 usec per message,   0.0027 usec per 8-byte item

 RNG seed: -1917417627 -61713970 1837142260 -1161124437 1403436691 -1339282447 -1480043842 -644045609



                      ************************************************************************
                      *  ADF 2024.102  RunTime: Jul27-2024 13:12:33  ShM Nodes: 4  Procs: 8  *
                      ************************************************************************
  

       ***************************
       *  GEOMETRY OPTIMIZATION  *
       ***************************

Optimization Method                    Quasi Newton
Optimization Coordinates               Delocalized Coordinates
Optimize lattice                       F
 
 ------------------------------------------------------
 Convergence criteria (Hartree,Angstrom)
 ------------------------------------------------------
 Maximum gradient               0.000100000000
 Maximum rms gradient           0.000066666667
 Maximum step allowed           0.001000000000
 Maximum rms step allowed       0.000666666667
 Maximum energy change allowe   0.000009000000
 Maximum stress energy allowe   0.000500000000
 
Initial model Hessian                  Automatic Hessian
 
------------------------------------
Quasi-Newton Optimizer Parameters
------------------------------------
Hessian Update Method                  BFGS
Maximum number of steps                  250
First GDIIS cycle                          0
Maximum GDIIS vectors                      0
Trust radius (bohr)                        0.200000
Trust radius varies                        T
Constraints converged at all steps         T
Use projector                              T
 
 Rigid motions settings for: old optimizer
 Atomic rotations (x,y,z):     T T T
 Atomic translations (x,y,z):  T T T
 Tolerance:                   1.000000000000000E-006
 
--------
Geometry
--------
Formula: HCl6OPa
Atoms
  Index Symbol   x (angstrom)   y (angstrom)   z (angstrom)
      1     Pa    -1.12173060    -0.18623018     0.09742465       adf.R=2.200
      2     Cl     1.27163450    -1.15495131    -0.20336533       adf.R=1.725
      3     Cl    -1.44951346    -2.04891412    -1.68994100       adf.R=1.725
      4     Cl    -1.61119445    -1.84586135     1.95145351       adf.R=1.725
      5     Cl    -3.70224916    -0.11116076    -0.45799879       adf.R=1.725
      6      O    -2.37504193     1.57357054     1.30195118       adf.R=1.517
      7     Cl     0.34104335     1.21237187     1.77962515       adf.R=1.725
      8     Cl    -0.68309589     1.51575209    -1.73082986       adf.R=1.725
      9      H    -1.94683874     2.27657402     1.80279955       adf.R=1.350
 
Total System Charge            -2.00000
Bonding info available!
 
 
----------------
ADF Engine Input
----------------
 
 Basis
 Type TZ2P
 Core None
 End
 XC
 Hybrid PBE0
 End
 Solvation
 Surf Delley
 Solv name=Water cav0=0.0 cav1=0.0067639
 Charged method=CONJ
 C-Mat POT
 SCF VAR ALL
 CSMRSP
 End
 NumericalQuality Good
 

 Title: *** (NO TITLE) ***

 Using automatic Hessian for delocalized coordinates.
 *** GO1_GOStep1 ***

 SOLVATION
-------------------------------------------

  The Delley construction of COSMO surface surface is calculated

       Division Level for Surface Triangles (NDIV)                  3
       Final Division Level for Triangles (NFDIV)                   1
       Radius of the Solvent (RSOL)                           1.93000 angstr
  Dielectric Constant (EPSL)                                 78.39000

       COSMO equation is solved iteratively-               conjugate-gradient

       Maximun of Iterations for Charges (NCIX)                  1000
       Criterion for Charge convergence (CCNV)                1.0E-08

  COSMO charges included variationally in SCF

       COSMO included at every SCF cycle

  Geometry-dependent empirical factor                         0.00000

  C-Matrix calculated in cspmtx

  In cspmtx, C-Matrix calculated using fitted potential

-------------------------------------------



 -------------------------------------------
  COSMO surface
  Area             =          623.252
  Volume           =         1162.830
  Number of Points =         1365
 -------------------------------------------
 
 RIHartreeFock Dependency: number of modified vectors:           7
 cosmo_calcen: 0.5 (esolb+esolc) (Hartrees) =   -0.273580

 Solvation energy (screening term,uncorrected) =   -171.673803 kcal/mol

 Solvation energy (dispersion and cavitation terms) =      1.165433 kcal/mol
 Solvation Energy Contributions (Hartrees)
          esola   esolb+esolc
     0.27357959   -0.54715918
 esol last cycle   -0.27357959
  
 Hartree-Fock exchange energy:   -641.419527709467     
 cosmo_calcen: 0.5 (esolb+esolc) (Hartrees) =   -0.273580

 Solvation energy (screening term,uncorrected) =   -171.673804 kcal/mol

 Solvation energy (dispersion and cavitation terms) =      1.165433 kcal/mol
 Solvation Energy Contributions (Hartrees)
          esola   esolb+esolc
     0.27357959   -0.54715918
 esol last cycle   -0.27357959

 Energy gradients wrt nuclear displacements
 ==========================================

     Atom      Cartesian (a.u./angstrom)
                 X         Y         Z
 ----------------------------------------
     1 Pa    0.054846 -0.081768 -0.055611
     2 Cl   -0.011062  0.004867  0.001796
     3 Cl    0.000041  0.009089  0.008292
     4 Cl    0.001191  0.010774 -0.008509
     5 Cl    0.008181  0.009184  0.008394
     6 O    -0.012988  0.037408  0.033447
     7 Cl   -0.023298  0.000335 -0.005794
     8 Cl   -0.004294 -0.006582  0.011615
     9 H    -0.012616  0.016691  0.006370
 ----------------------------------------
 Mulliken charges used for AMS results%charges...
 
----------------------------------------------------------------------
Geometry Convergence after Step   1       (Hartree/Angstrom,Angstrom)
----------------------------------------------------------------------
current energy                               -2.39686274 Hartree
energy change                      -2.39686274     0.00000900    F
constrained gradient max            0.08177427     0.00010000    F
constrained gradient rms            0.02541302     0.00006667    F
gradient max                        0.08177427
gradient rms                        0.02541302
cart. step max                      0.07343109     0.00100000    F
cart. step rms                      0.02623269     0.00066667    F
 
 
--------
Geometry
--------
Formula: HCl6OPa
Atoms
  Index Symbol   x (angstrom)   y (angstrom)   z (angstrom)
      1     Pa    -1.14451438    -0.15081680     0.11788722       adf.R=2.200
      2     Cl     1.25421723    -1.12634832    -0.17628180       adf.R=1.725
      3     Cl    -1.45716694    -2.01999971    -1.67519854       adf.R=1.725
      4     Cl    -1.61878120    -1.83841084     1.96052477       adf.R=1.725
      5     Cl    -3.72173959    -0.14960586    -0.48140887       adf.R=1.725
      6      O    -2.40501661     1.57307546     1.28222491       adf.R=1.517
      7     Cl     0.41447444     1.19002919     1.77491095       adf.R=1.725
      8     Cl    -0.67970850     1.52557082    -1.73745920       adf.R=1.725
      9      H    -1.91875085     2.22765686     1.78591963       adf.R=1.350
 
Total System Charge            -2.00000
Bonding info available!
 
 *** GO1_GOStep2 ***

 SOLVATION
-------------------------------------------

  The Delley construction of COSMO surface surface is calculated

       Division Level for Surface Triangles (NDIV)                  3
       Final Division Level for Triangles (NFDIV)                   1
       Radius of the Solvent (RSOL)                           1.93000 angstr
  Dielectric Constant (EPSL)                                 78.39000

       COSMO equation is solved iteratively-               conjugate-gradient

       Maximun of Iterations for Charges (NCIX)                  1000
       Criterion for Charge convergence (CCNV)                1.0E-08

  COSMO charges included variationally in SCF

       COSMO included at every SCF cycle

  Geometry-dependent empirical factor                         0.00000

  C-Matrix calculated in cspmtx

  In cspmtx, C-Matrix calculated using fitted potential

-------------------------------------------



 -------------------------------------------
  COSMO surface
  Area             =          622.582
  Volume           =         1162.595
  Number of Points =         1368
 -------------------------------------------
 
 RIHartreeFock Dependency: number of modified vectors:           7
 cosmo_calcen: 0.5 (esolb+esolc) (Hartrees) =   -0.271757

 Solvation energy (screening term,uncorrected) =   -170.530157 kcal/mol

 Solvation energy (dispersion and cavitation terms) =      1.164179 kcal/mol
 Solvation Energy Contributions (Hartrees)
          esola   esolb+esolc
     0.27175707   -0.54351415
 esol last cycle   -0.27175707
  
 Hartree-Fock exchange energy:   -641.420780523919     
 cosmo_calcen: 0.5 (esolb+esolc) (Hartrees) =   -0.271757

 Solvation energy (screening term,uncorrected) =   -170.530145 kcal/mol

 Solvation energy (dispersion and cavitation terms) =      1.164179 kcal/mol
 Solvation Energy Contributions (Hartrees)
          esola   esolb+esolc
     0.27175706   -0.54351411
 esol last cycle   -0.27175706

 Energy gradients wrt nuclear displacements
 ==========================================

     Atom      Cartesian (a.u./angstrom)
                 X         Y         Z
 ----------------------------------------
     1 Pa    0.053414 -0.074047 -0.050099
     2 Cl   -0.010796  0.008412  0.005132
     3 Cl   -0.002417  0.009841  0.008453
     4 Cl    0.001061  0.008191 -0.007140
     5 Cl    0.008518  0.005331  0.005547
     6 O    -0.024246  0.047475  0.036841
     7 Cl   -0.009208 -0.005591 -0.007267
     8 Cl   -0.003025 -0.005772  0.008921
     9 H    -0.013301  0.006160 -0.000387
 ----------------------------------------
 Mulliken charges used for AMS results%charges...

 dE(predicted):    -0.44273E-02, dE(actual):    -0.68113E-02, Trust radius:    0.400000, all in a.u.
 
----------------------------------------------------------------------
Geometry Convergence after Step   2       (Hartree/Angstrom,Angstrom)
----------------------------------------------------------------------
current energy                               -2.40367405 Hartree
energy change                      -0.00681131     0.00000900    F
constrained gradient max            0.07405124     0.00010000    F
constrained gradient rms            0.02448701     0.00006667    F
gradient max                        0.07405124
gradient rms                        0.02448701
cart. step max                      0.14795768     0.00100000    F
cart. step rms                      0.05521048     0.00066667    F
 
 
--------
Geometry
--------
Formula: HCl6OPa
Atoms
  Index Symbol   x (angstrom)   y (angstrom)   z (angstrom)
      1     Pa    -1.20750169    -0.07400478     0.16365919       adf.R=2.200
      2     Cl     1.19546462    -1.09137602    -0.15171416       adf.R=1.725
      3     Cl    -1.43506177    -1.96755467    -1.64737931       adf.R=1.725
      4     Cl    -1.64528048    -1.82544152     1.98255023       adf.R=1.725
      5     Cl    -3.77209722    -0.23443407    -0.53288387       adf.R=1.725
      6      O    -2.40658661     1.55721268     1.25795594       adf.R=1.517
      7     Cl     0.45541234     1.21122918     1.80235561       adf.R=1.725
      8     Cl    -0.69054242     1.55618712    -1.74519092       adf.R=1.725
      9      H    -1.77079316     2.09933287     1.72176636       adf.R=1.350
 
Total System Charge            -2.00000
Bonding info available!
 
 *** GO1_GOStep3 ***

 SOLVATION
-------------------------------------------

  The Delley construction of COSMO surface surface is calculated

       Division Level for Surface Triangles (NDIV)                  3
       Final Division Level for Triangles (NFDIV)                   1
       Radius of the Solvent (RSOL)                           1.93000 angstr
  Dielectric Constant (EPSL)                                 78.39000

       COSMO equation is solved iteratively-               conjugate-gradient

       Maximun of Iterations for Charges (NCIX)                  1000
       Criterion for Charge convergence (CCNV)                1.0E-08

  COSMO charges included variationally in SCF

       COSMO included at every SCF cycle

  Geometry-dependent empirical factor                         0.00000

  C-Matrix calculated in cspmtx

  In cspmtx, C-Matrix calculated using fitted potential

-------------------------------------------



 -------------------------------------------
  COSMO surface
  Area             =          621.580
  Volume           =         1161.173
  Number of Points =         1368
 -------------------------------------------
 
 RIHartreeFock Dependency: number of modified vectors:           7
 cosmo_calcen: 0.5 (esolb+esolc) (Hartrees) =   -0.268114

 Solvation energy (screening term,uncorrected) =   -168.244169 kcal/mol

 Solvation energy (dispersion and cavitation terms) =      1.162307 kcal/mol
 Solvation Energy Contributions (Hartrees)
          esola   esolb+esolc
     0.26811412   -0.53622824
 esol last cycle   -0.26811412
  
 Hartree-Fock exchange energy:   -641.429471148077     
 cosmo_calcen: 0.5 (esolb+esolc) (Hartrees) =   -0.268114

 Solvation energy (screening term,uncorrected) =   -168.244175 kcal/mol

 Solvation energy (dispersion and cavitation terms) =      1.162307 kcal/mol
 Solvation Energy Contributions (Hartrees)
          esola   esolb+esolc
     0.26811413   -0.53622826
 esol last cycle   -0.26811413

 Energy gradients wrt nuclear displacements
 ==========================================

     Atom      Cartesian (a.u./angstrom)
                 X         Y         Z
 ----------------------------------------
     1 Pa    0.044065 -0.049289 -0.032914
     2 Cl   -0.011933  0.007136  0.003533
     3 Cl   -0.001785  0.010630  0.009597
     4 Cl    0.000925  0.002671 -0.004073
     5 Cl    0.006979 -0.003187 -0.001558
     6 O    -0.026677  0.052699  0.039883
     7 Cl   -0.001641 -0.008435 -0.007561
     8 Cl   -0.000442 -0.003949  0.003212
     9 H    -0.009492 -0.008276 -0.010120
 ----------------------------------------
 Mulliken charges used for AMS results%charges...

 dE(predicted):    -0.10840E-01, dE(actual):    -0.11526E-01, Trust radius:    0.800000, all in a.u.
 
----------------------------------------------------------------------
Geometry Convergence after Step   3       (Hartree/Angstrom,Angstrom)
----------------------------------------------------------------------
current energy                               -2.41519978 Hartree
energy change                      -0.01152573     0.00000900    F
constrained gradient max            0.05274165     0.00010000    F
constrained gradient rms            0.02059483     0.00006667    F
gradient max                        0.05274165
gradient rms                        0.02059483
cart. step max                      0.19254237     0.00100000    F
cart. step rms                      0.06348222     0.00066667    F
 
 
--------
Geometry
--------
Formula: HCl6OPa
Atoms
  Index Symbol   x (angstrom)   y (angstrom)   z (angstrom)
      1     Pa    -1.27396933     0.00918630     0.21113832       adf.R=2.200
      2     Cl     1.14061171    -1.06580217    -0.12373197       adf.R=1.725
      3     Cl    -1.39403904    -1.91787557    -1.62600375       adf.R=1.725
      4     Cl    -1.68122139    -1.79268956     2.02285599       adf.R=1.725
      5     Cl    -3.83396509    -0.27113600    -0.54679637       adf.R=1.725
      6      O    -2.38708657     1.50271927     1.19277682       adf.R=1.517
      7     Cl     0.49353286     1.25550007     1.82795037       adf.R=1.725
      8     Cl    -0.70646397     1.60445795    -1.74591511       adf.R=1.725
      9      H    -1.63438556     1.90679051     1.63884478       adf.R=1.350
 
Total System Charge            -2.00000
Bonding info available!
 
 *** GO1_GOStep4 ***

 SOLVATION
-------------------------------------------

  The Delley construction of COSMO surface surface is calculated

       Division Level for Surface Triangles (NDIV)                  3
       Final Division Level for Triangles (NFDIV)                   1
       Radius of the Solvent (RSOL)                           1.93000 angstr
  Dielectric Constant (EPSL)                                 78.39000

       COSMO equation is solved iteratively-               conjugate-gradient

       Maximun of Iterations for Charges (NCIX)                  1000
       Criterion for Charge convergence (CCNV)                1.0E-08

  COSMO charges included variationally in SCF

       COSMO included at every SCF cycle

  Geometry-dependent empirical factor                         0.00000

  C-Matrix calculated in cspmtx

  In cspmtx, C-Matrix calculated using fitted potential

-------------------------------------------



 -------------------------------------------
  COSMO surface
  Area             =          617.802
  Volume           =         1154.439
  Number of Points =         1371
 -------------------------------------------
 
 RIHartreeFock Dependency: number of modified vectors:           7
 cosmo_calcen: 0.5 (esolb+esolc) (Hartrees) =   -0.266418

 Solvation energy (screening term,uncorrected) =   -167.179564 kcal/mol

 Solvation energy (dispersion and cavitation terms) =      1.155243 kcal/mol
 Solvation Energy Contributions (Hartrees)
          esola   esolb+esolc
     0.26641757   -0.53283513
 esol last cycle   -0.26641757
  
 Hartree-Fock exchange energy:   -641.458076290082     
 cosmo_calcen: 0.5 (esolb+esolc) (Hartrees) =   -0.266418

 Solvation energy (screening term,uncorrected) =   -167.179565 kcal/mol

 Solvation energy (dispersion and cavitation terms) =      1.155243 kcal/mol
 Solvation Energy Contributions (Hartrees)
          esola   esolb+esolc
     0.26641757   -0.53283513
 esol last cycle   -0.26641757

 Energy gradients wrt nuclear displacements
 ==========================================

     Atom      Cartesian (a.u./angstrom)
                 X         Y         Z
 ----------------------------------------
     1 Pa    0.011544  0.012327  0.010457
     2 Cl   -0.014097  0.004210 -0.000063
     3 Cl    0.004909  0.008379  0.009725
     4 Cl    0.001098 -0.001828 -0.001833
     5 Cl    0.004284 -0.004350 -0.002559
     6 O    -0.009434  0.018777  0.014829
     7 Cl    0.005557 -0.010579 -0.007229
     8 Cl    0.001653 -0.002601 -0.001171
     9 H    -0.005513 -0.024334 -0.022156
 ----------------------------------------
 Mulliken charges used for AMS results%charges...

 dE(predicted):    -0.67074E-02, dE(actual):    -0.40249E-02, Trust radius:    0.800000, all in a.u.
 
----------------------------------------------------------------------
Geometry Convergence after Step   4       (Hartree/Angstrom,Angstrom)
----------------------------------------------------------------------
current energy                               -2.41922472 Hartree
energy change                      -0.00402495     0.00000900    F
constrained gradient max            0.02433182     0.00010000    F
constrained gradient rms            0.01024219     0.00006667    F
gradient max                        0.02433182
gradient rms                        0.01024219
cart. step max                      0.05622971     0.00100000    F
cart. step rms                      0.02316828     0.00066667    F
 
 
--------
Geometry
--------
Formula: HCl6OPa
Atoms
  Index Symbol   x (angstrom)   y (angstrom)   z (angstrom)
      1     Pa    -1.25207360    -0.02319434     0.18941043       adf.R=2.200
      2     Cl     1.17136313    -1.08289803    -0.12532186       adf.R=1.725
      3     Cl    -1.41638978    -1.94199205    -1.65174191       adf.R=1.725
      4     Cl    -1.67777110    -1.79443282     2.02099953       adf.R=1.725
      5     Cl    -3.82163059    -0.25433933    -0.54235763       adf.R=1.725
      6      O    -2.36648217     1.50134453     1.19506916       adf.R=1.517
      7     Cl     0.46435869     1.27035169     1.81811144       adf.R=1.725
      8     Cl    -0.70646836     1.59659713    -1.74812457       adf.R=1.725
      9      H    -1.67189261     1.95971401     1.69507448       adf.R=1.350
 
Total System Charge            -2.00000
Bonding info available!
 
 *** GO1_GOStep5 ***

 SOLVATION
-------------------------------------------

  The Delley construction of COSMO surface surface is calculated

       Division Level for Surface Triangles (NDIV)                  3
       Final Division Level for Triangles (NFDIV)                   1
       Radius of the Solvent (RSOL)                           1.93000 angstr
  Dielectric Constant (EPSL)                                 78.39000

       COSMO equation is solved iteratively-               conjugate-gradient

       Maximun of Iterations for Charges (NCIX)                  1000
       Criterion for Charge convergence (CCNV)                1.0E-08

  COSMO charges included variationally in SCF

       COSMO included at every SCF cycle

  Geometry-dependent empirical factor                         0.00000

  C-Matrix calculated in cspmtx

  In cspmtx, C-Matrix calculated using fitted potential

-------------------------------------------



 -------------------------------------------
  COSMO surface
  Area             =          621.517
  Volume           =         1160.726
  Number of Points =         1372
 -------------------------------------------
 
 RIHartreeFock Dependency: number of modified vectors:           7
 cosmo_calcen: 0.5 (esolb+esolc) (Hartrees) =   -0.266404

 Solvation energy (screening term,uncorrected) =   -167.170758 kcal/mol

 Solvation energy (dispersion and cavitation terms) =      1.162189 kcal/mol
 Solvation Energy Contributions (Hartrees)
          esola   esolb+esolc
     0.26640353   -0.53280706
 esol last cycle   -0.26640353
  
 Hartree-Fock exchange energy:   -641.441538919121     
 cosmo_calcen: 0.5 (esolb+esolc) (Hartrees) =   -0.266404

 Solvation energy (screening term,uncorrected) =   -167.170754 kcal/mol

 Solvation energy (dispersion and cavitation terms) =      1.162189 kcal/mol
 Solvation Energy Contributions (Hartrees)
          esola   esolb+esolc
     0.26640353   -0.53280705
 esol last cycle   -0.26640353

 Energy gradients wrt nuclear displacements
 ==========================================

     Atom      Cartesian (a.u./angstrom)
                 X         Y         Z
 ----------------------------------------
     1 Pa    0.021134 -0.009248 -0.003792
     2 Cl   -0.009105  0.003299  0.000444
     3 Cl    0.001060  0.006711  0.006878
     4 Cl    0.000393 -0.000854 -0.001126
     5 Cl    0.004006 -0.003029 -0.001656
     6 O    -0.024469  0.018601  0.011270
     7 Cl   -0.000825 -0.007189 -0.006521
     8 Cl    0.000756 -0.001452 -0.000189
     9 H     0.007051 -0.006840 -0.005309
 ----------------------------------------
 Mulliken charges used for AMS results%charges...

 dE(predicted):    -0.21592E-02, dE(actual):    -0.32025E-02, Trust radius:    0.800000, all in a.u.
 
----------------------------------------------------------------------
Geometry Convergence after Step   5       (Hartree/Angstrom,Angstrom)
----------------------------------------------------------------------
current energy                               -2.42242726 Hartree
energy change                      -0.00320254     0.00000900    F
constrained gradient max            0.02440114     0.00010000    F
constrained gradient rms            0.00873077     0.00006667    F
gradient max                        0.02440114
gradient rms                        0.00873077
cart. step max                      0.04121447     0.00100000    F
cart. step rms                      0.01841701     0.00066667    F
 
 
--------
Geometry
--------
Formula: HCl6OPa
Atoms
  Index Symbol   x (angstrom)   y (angstrom)   z (angstrom)
      1     Pa    -1.24598998    -0.03636212     0.17688589       adf.R=2.200
      2     Cl     1.19508963    -1.09638631    -0.11547241       adf.R=1.725
      3     Cl    -1.42993465    -1.95711495    -1.67973303       adf.R=1.725
      4     Cl    -1.68447751    -1.78220564     2.03383261       adf.R=1.725
      5     Cl    -3.82894510    -0.23752549    -0.53496160       adf.R=1.725
      6      O    -2.32526770     1.47547000     1.17375615       adf.R=1.517
      7     Cl     0.44609594     1.30062238     1.81472707       adf.R=1.725
      8     Cl    -0.71230117     1.60395553    -1.75102892       adf.R=1.725
      9      H    -1.69125584     1.96069740     1.73311331       adf.R=1.350
 
Total System Charge            -2.00000
Bonding info available!
 
 *** GO1_GOStep6 ***

 SOLVATION
-------------------------------------------

  The Delley construction of COSMO surface surface is calculated

       Division Level for Surface Triangles (NDIV)                  3
       Final Division Level for Triangles (NFDIV)                   1
       Radius of the Solvent (RSOL)                           1.93000 angstr
  Dielectric Constant (EPSL)                                 78.39000

       COSMO equation is solved iteratively-               conjugate-gradient

       Maximun of Iterations for Charges (NCIX)                  1000
       Criterion for Charge convergence (CCNV)                1.0E-08

  COSMO charges included variationally in SCF

       COSMO included at every SCF cycle

  Geometry-dependent empirical factor                         0.00000

  C-Matrix calculated in cspmtx

  In cspmtx, C-Matrix calculated using fitted potential

-------------------------------------------



 -------------------------------------------
  COSMO surface
  Area             =          622.581
  Volume           =         1161.623
  Number of Points =         1367
 -------------------------------------------
 
 RIHartreeFock Dependency: number of modified vectors:           7
 cosmo_calcen: 0.5 (esolb+esolc) (Hartrees) =   -0.266407

 Solvation energy (screening term,uncorrected) =   -167.172742 kcal/mol

 Solvation energy (dispersion and cavitation terms) =      1.164178 kcal/mol
 Solvation Energy Contributions (Hartrees)
          esola   esolb+esolc
     0.26640669   -0.53281339
 esol last cycle   -0.26640669
  
 Hartree-Fock exchange energy:   -641.439522761627     
 cosmo_calcen: 0.5 (esolb+esolc) (Hartrees) =   -0.266407

 Solvation energy (screening term,uncorrected) =   -167.172742 kcal/mol

 Solvation energy (dispersion and cavitation terms) =      1.164178 kcal/mol
 Solvation Energy Contributions (Hartrees)
          esola   esolb+esolc
     0.26640669   -0.53281339
 esol last cycle   -0.26640669

 Energy gradients wrt nuclear displacements
 ==========================================

     Atom      Cartesian (a.u./angstrom)
                 X         Y         Z
 ----------------------------------------
     1 Pa    0.015373 -0.006012 -0.001199
     2 Cl   -0.003760  0.001476  0.000237
     3 Cl   -0.000786  0.003512  0.003120
     4 Cl   -0.000290 -0.000680  0.000211
     5 Cl    0.002733 -0.000834 -0.000023
     6 O    -0.018123  0.005300 -0.000381
     7 Cl   -0.005747 -0.003905 -0.005382
     8 Cl    0.000187  0.000136 -0.000077
     9 H     0.010412  0.001006  0.003495
 ----------------------------------------
 Mulliken charges used for AMS results%charges...

 dE(predicted):    -0.13307E-02, dE(actual):    -0.20037E-02, Trust radius:    0.800000, all in a.u.
 
----------------------------------------------------------------------
Geometry Convergence after Step   6       (Hartree/Angstrom,Angstrom)
----------------------------------------------------------------------
current energy                               -2.42443096 Hartree
energy change                      -0.00200369     0.00000900    F
constrained gradient max            0.01805405     0.00010000    F
constrained gradient rms            0.00570008     0.00006667    F
gradient max                        0.01805405
gradient rms                        0.00570008
cart. step max                      0.03103579     0.00100000    F
cart. step rms                      0.01290713     0.00066667    F
 
 
--------
Geometry
--------
Formula: HCl6OPa
Atoms
  Index Symbol   x (angstrom)   y (angstrom)   z (angstrom)
      1     Pa    -1.24549940    -0.04063422     0.17034162       adf.R=2.200
      2     Cl     1.20815900    -1.10541912    -0.11094458       adf.R=1.725
      3     Cl    -1.43120673    -1.96820560    -1.69684207       adf.R=1.725
      4     Cl    -1.68668318    -1.77292539     2.04254775       adf.R=1.725
      5     Cl    -3.83951745    -0.22306240    -0.52846493       adf.R=1.725
      6      O    -2.29458081     1.45428584     1.15946882       adf.R=1.517
      7     Cl     0.45100525     1.31107621     1.81612877       adf.R=1.725
      8     Cl    -0.71637143     1.60887888    -1.75486835       adf.R=1.725
      9      H    -1.72229163     1.96715660     1.75375205       adf.R=1.350
 
Total System Charge            -2.00000
Bonding info available!
 
 *** GO1_GOStep7 ***

 SOLVATION
-------------------------------------------

  The Delley construction of COSMO surface surface is calculated

       Division Level for Surface Triangles (NDIV)                  3
       Final Division Level for Triangles (NFDIV)                   1
       Radius of the Solvent (RSOL)                           1.93000 angstr
  Dielectric Constant (EPSL)                                 78.39000

       COSMO equation is solved iteratively-               conjugate-gradient

       Maximun of Iterations for Charges (NCIX)                  1000
       Criterion for Charge convergence (CCNV)                1.0E-08

  COSMO charges included variationally in SCF

       COSMO included at every SCF cycle

  Geometry-dependent empirical factor                         0.00000

  C-Matrix calculated in cspmtx

  In cspmtx, C-Matrix calculated using fitted potential

-------------------------------------------



 -------------------------------------------
  COSMO surface
  Area             =          623.607
  Volume           =         1162.564
  Number of Points =         1370
 -------------------------------------------
 
 RIHartreeFock Dependency: number of modified vectors:           7
 cosmo_calcen: 0.5 (esolb+esolc) (Hartrees) =   -0.266782

 Solvation energy (screening term,uncorrected) =   -167.408229 kcal/mol

 Solvation energy (dispersion and cavitation terms) =      1.166096 kcal/mol
 Solvation Energy Contributions (Hartrees)
          esola   esolb+esolc
     0.26678197   -0.53356393
 esol last cycle   -0.26678197
  
 Hartree-Fock exchange energy:   -641.441873445661     
 cosmo_calcen: 0.5 (esolb+esolc) (Hartrees) =   -0.266782

 Solvation energy (screening term,uncorrected) =   -167.408233 kcal/mol

 Solvation energy (dispersion and cavitation terms) =      1.166096 kcal/mol
 Solvation Energy Contributions (Hartrees)
          esola   esolb+esolc
     0.26678197   -0.53356395
 esol last cycle   -0.26678197

 Energy gradients wrt nuclear displacements
 ==========================================

     Atom      Cartesian (a.u./angstrom)
                 X         Y         Z
 ----------------------------------------
     1 Pa    0.007312  0.001170  0.003328
     2 Cl   -0.000718  0.000406  0.000225
     3 Cl   -0.000611  0.000894  0.000466
     4 Cl   -0.000505 -0.000667  0.001039
     5 Cl    0.001224  0.001293  0.001486
     6 O    -0.006266 -0.002872 -0.005288
     7 Cl   -0.005947 -0.002052 -0.003862
     8 Cl   -0.000010  0.001037 -0.000342
     9 H     0.005521  0.000791  0.002949
 ----------------------------------------
 Mulliken charges used for AMS results%charges...

 dE(predicted):    -0.55731E-03, dE(actual):    -0.72654E-03, Trust radius:    0.800000, all in a.u.
 
----------------------------------------------------------------------
Geometry Convergence after Step   7       (Hartree/Angstrom,Angstrom)
----------------------------------------------------------------------
current energy                               -2.42515749 Hartree
energy change                      -0.00072654     0.00000900    F
constrained gradient max            0.00730229     0.00010000    F
constrained gradient rms            0.00301890     0.00006667    F
gradient max                        0.00730229
gradient rms                        0.00301890
cart. step max                      0.02095108     0.00100000    F
cart. step rms                      0.00706244     0.00066667    F
 
 
--------
Geometry
--------
Formula: HCl6OPa
Atoms
  Index Symbol   x (angstrom)   y (angstrom)   z (angstrom)
      1     Pa    -1.24720523    -0.04103080     0.16829180       adf.R=2.200
      2     Cl     1.21044740    -1.10751890    -0.11417716       adf.R=1.725
      3     Cl    -1.43052374    -1.97407867    -1.69993355       adf.R=1.725
      4     Cl    -1.68517967    -1.77173024     2.04225948       adf.R=1.725
      5     Cl    -3.84335324    -0.22431952    -0.53334988       adf.R=1.725
      6      O    -2.28130300     1.45124223     1.16199986       adf.R=1.517
      7     Cl     0.46150445     1.30581006     1.82064704       adf.R=1.725
      8     Cl    -0.71813066     1.60735470    -1.75800102       adf.R=1.725
      9      H    -1.74324271     1.98542195     1.76338250       adf.R=1.350
 
Total System Charge            -2.00000
Bonding info available!
 
 *** GO1_GOStep8 ***

 SOLVATION
-------------------------------------------

  The Delley construction of COSMO surface surface is calculated

       Division Level for Surface Triangles (NDIV)                  3
       Final Division Level for Triangles (NFDIV)                   1
       Radius of the Solvent (RSOL)                           1.93000 angstr
  Dielectric Constant (EPSL)                                 78.39000

       COSMO equation is solved iteratively-               conjugate-gradient

       Maximun of Iterations for Charges (NCIX)                  1000
       Criterion for Charge convergence (CCNV)                1.0E-08

  COSMO charges included variationally in SCF

       COSMO included at every SCF cycle

  Geometry-dependent empirical factor                         0.00000

  C-Matrix calculated in cspmtx

  In cspmtx, C-Matrix calculated using fitted potential

-------------------------------------------



 -------------------------------------------
  COSMO surface
  Area             =          624.103
  Volume           =         1163.268
  Number of Points =         1367
 -------------------------------------------
 
 RIHartreeFock Dependency: number of modified vectors:           7
 cosmo_calcen: 0.5 (esolb+esolc) (Hartrees) =   -0.267176

 Solvation energy (screening term,uncorrected) =   -167.655525 kcal/mol

 Solvation energy (dispersion and cavitation terms) =      1.167025 kcal/mol
 Solvation Energy Contributions (Hartrees)
          esola   esolb+esolc
     0.26717606   -0.53435211
 esol last cycle   -0.26717606
  
 Hartree-Fock exchange energy:   -641.441493682173     
 cosmo_calcen: 0.5 (esolb+esolc) (Hartrees) =   -0.267176

 Solvation energy (screening term,uncorrected) =   -167.655530 kcal/mol

 Solvation energy (dispersion and cavitation terms) =      1.167025 kcal/mol
 Solvation Energy Contributions (Hartrees)
          esola   esolb+esolc
     0.26717607   -0.53435213
 esol last cycle   -0.26717607

 Energy gradients wrt nuclear displacements
 ==========================================

     Atom      Cartesian (a.u./angstrom)
                 X         Y         Z
 ----------------------------------------
     1 Pa    0.004543  0.002364  0.003609
     2 Cl    0.000177  0.000098  0.000290
     3 Cl   -0.000552  0.000143 -0.000294
     4 Cl   -0.000393 -0.000649  0.001158
     5 Cl    0.000157  0.001068  0.001029
     6 O    -0.001005 -0.001898 -0.002756
     7 Cl   -0.004567 -0.001382 -0.002715
     8 Cl    0.000033  0.001126 -0.000614
     9 H     0.001608 -0.000871  0.000293
 ----------------------------------------
 Mulliken charges used for AMS results%charges...

 dE(predicted):    -0.13594E-03, dE(actual):    -0.20783E-03, Trust radius:    0.800000, all in a.u.
 
----------------------------------------------------------------------
Geometry Convergence after Step   8       (Hartree/Angstrom,Angstrom)
----------------------------------------------------------------------
current energy                               -2.42536532 Hartree
energy change                      -0.00020783     0.00000900    F
constrained gradient max            0.00453301     0.00010000    F
constrained gradient rms            0.00183871     0.00006667    F
gradient max                        0.00453301
gradient rms                        0.00183871
cart. step max                      0.02952799     0.00100000    F
cart. step rms                      0.01020160     0.00066667    F
 
 
--------
Geometry
--------
Formula: HCl6OPa
Atoms
  Index Symbol   x (angstrom)   y (angstrom)   z (angstrom)
      1     Pa    -1.25062081    -0.04008680     0.16716626       adf.R=2.200
      2     Cl     1.20931943    -1.10787542    -0.12328229       adf.R=1.725
      3     Cl    -1.42634924    -1.98182332    -1.69774269       adf.R=1.725
      4     Cl    -1.68291671    -1.77323808     2.03781347       adf.R=1.725
      5     Cl    -3.84640080    -0.22949704    -0.54333852       adf.R=1.725
      6      O    -2.26991630     1.45287924     1.17026326       adf.R=1.517
      7     Cl     0.47939661     1.29337618     1.82745256       adf.R=1.725
      8     Cl    -0.71972369     1.60246609    -1.76188838       adf.R=1.725
      9      H    -1.76977488     2.01494994     1.77467540       adf.R=1.350
 
Total System Charge            -2.00000
Bonding info available!
 
 *** GO1_GOStep9 ***

 SOLVATION
-------------------------------------------

  The Delley construction of COSMO surface surface is calculated

       Division Level for Surface Triangles (NDIV)                  3
       Final Division Level for Triangles (NFDIV)                   1
       Radius of the Solvent (RSOL)                           1.93000 angstr
  Dielectric Constant (EPSL)                                 78.39000

       COSMO equation is solved iteratively-               conjugate-gradient

       Maximun of Iterations for Charges (NCIX)                  1000
       Criterion for Charge convergence (CCNV)                1.0E-08

  COSMO charges included variationally in SCF

       COSMO included at every SCF cycle

  Geometry-dependent empirical factor                         0.00000

  C-Matrix calculated in cspmtx

  In cspmtx, C-Matrix calculated using fitted potential

-------------------------------------------



 -------------------------------------------
  COSMO surface
  Area             =          625.600
  Volume           =         1165.261
  Number of Points =         1370
 -------------------------------------------
 
 RIHartreeFock Dependency: number of modified vectors:           7
 cosmo_calcen: 0.5 (esolb+esolc) (Hartrees) =   -0.267808

 Solvation energy (screening term,uncorrected) =   -168.052032 kcal/mol

 Solvation energy (dispersion and cavitation terms) =      1.169824 kcal/mol
 Solvation Energy Contributions (Hartrees)
          esola   esolb+esolc
     0.26780793   -0.53561586
 esol last cycle   -0.26780793
  
 Hartree-Fock exchange energy:   -641.438945618747     
 cosmo_calcen: 0.5 (esolb+esolc) (Hartrees) =   -0.267808

 Solvation energy (screening term,uncorrected) =   -168.052030 kcal/mol

 Solvation energy (dispersion and cavitation terms) =      1.169824 kcal/mol
 Solvation Energy Contributions (Hartrees)
          esola   esolb+esolc
     0.26780793   -0.53561586
 esol last cycle   -0.26780793

 Energy gradients wrt nuclear displacements
 ==========================================

     Atom      Cartesian (a.u./angstrom)
                 X         Y         Z
 ----------------------------------------
     1 Pa    0.002571  0.001742  0.002367
     2 Cl    0.000489 -0.000165  0.000217
     3 Cl   -0.000036 -0.000347 -0.000643
     4 Cl   -0.000137 -0.000584  0.000946
     5 Cl   -0.001159  0.000278  0.000057
     6 O     0.001174  0.000530  0.000491
     7 Cl   -0.002065 -0.000857 -0.001284
     8 Cl    0.000167  0.000872 -0.000860
     9 H    -0.001004 -0.001471 -0.001290
 ----------------------------------------
 Mulliken charges used for AMS results%charges...

 dE(predicted):    -0.11721E-03, dE(actual):    -0.13719E-03, Trust radius:    0.800000, all in a.u.
 
----------------------------------------------------------------------
Geometry Convergence after Step   9       (Hartree/Angstrom,Angstrom)
----------------------------------------------------------------------
current energy                               -2.42550251 Hartree
energy change                      -0.00013719     0.00000900    F
constrained gradient max            0.00256113     0.00010000    F
constrained gradient rms            0.00111565     0.00006667    F
gradient max                        0.00256113
gradient rms                        0.00111565
cart. step max                      0.01098204     0.00100000    F
cart. step rms                      0.00394600     0.00066667    F
 
 
--------
Geometry
--------
Formula: HCl6OPa
Atoms
  Index Symbol   x (angstrom)   y (angstrom)   z (angstrom)
      1     Pa    -1.25244485    -0.03939838     0.16748225       adf.R=2.200
      2     Cl     1.20812967    -1.10575233    -0.12839483       adf.R=1.725
      3     Cl    -1.42531367    -1.98540443    -1.69389970       adf.R=1.725
      4     Cl    -1.68331017    -1.77485625     2.03465869       adf.R=1.725
      5     Cl    -3.84609029    -0.23235364    -0.54920049       adf.R=1.725
      6      O    -2.26711788     1.45419804     1.17408885       adf.R=1.517
      7     Cl     0.48667540     1.28874249     1.83034408       adf.R=1.725
      8     Cl    -0.72051130     1.60004331    -1.76235800       adf.R=1.725
      9      H    -1.77700328     2.02593198     1.77839821       adf.R=1.350
 
Total System Charge            -2.00000
Bonding info available!
 
 *** GO1_GOStep10 ***

 SOLVATION
-------------------------------------------

  The Delley construction of COSMO surface surface is calculated

       Division Level for Surface Triangles (NDIV)                  3
       Final Division Level for Triangles (NFDIV)                   1
       Radius of the Solvent (RSOL)                           1.93000 angstr
  Dielectric Constant (EPSL)                                 78.39000

       COSMO equation is solved iteratively-               conjugate-gradient

       Maximun of Iterations for Charges (NCIX)                  1000
       Criterion for Charge convergence (CCNV)                1.0E-08

  COSMO charges included variationally in SCF

       COSMO included at every SCF cycle

  Geometry-dependent empirical factor                         0.00000

  C-Matrix calculated in cspmtx

  In cspmtx, C-Matrix calculated using fitted potential

-------------------------------------------



 -------------------------------------------
  COSMO surface
  Area             =          626.720
  Volume           =         1166.825
  Number of Points =         1374
 -------------------------------------------
 
 RIHartreeFock Dependency: number of modified vectors:           7
 cosmo_calcen: 0.5 (esolb+esolc) (Hartrees) =   -0.268066

 Solvation energy (screening term,uncorrected) =   -168.213867 kcal/mol

 Solvation energy (dispersion and cavitation terms) =      1.171918 kcal/mol
 Solvation Energy Contributions (Hartrees)
          esola   esolb+esolc
     0.26806583   -0.53613167
 esol last cycle   -0.26806583
  
 Hartree-Fock exchange energy:   -641.437828932719     
 cosmo_calcen: 0.5 (esolb+esolc) (Hartrees) =   -0.268066

 Solvation energy (screening term,uncorrected) =   -168.213873 kcal/mol

 Solvation energy (dispersion and cavitation terms) =      1.171918 kcal/mol
 Solvation Energy Contributions (Hartrees)
          esola   esolb+esolc
     0.26806584   -0.53613168
 esol last cycle   -0.26806584

 Energy gradients wrt nuclear displacements
 ==========================================

     Atom      Cartesian (a.u./angstrom)
                 X         Y         Z
 ----------------------------------------
     1 Pa    0.001961  0.001431  0.001865
     2 Cl    0.000375 -0.000179  0.000147
     3 Cl    0.000085 -0.000282 -0.000517
     4 Cl   -0.000051 -0.000477  0.000637
     5 Cl   -0.001363 -0.000235 -0.000414
     6 O     0.000425  0.000277  0.000302
     7 Cl   -0.001047 -0.000742 -0.000870
     8 Cl    0.000202  0.000577 -0.000744
     9 H    -0.000587 -0.000371 -0.000406
 ----------------------------------------
 Mulliken charges used for AMS results%charges...

 dE(predicted):    -0.17107E-04, dE(actual):    -0.18068E-04, Trust radius:    0.800000, all in a.u.
 
----------------------------------------------------------------------
Geometry Convergence after Step  10       (Hartree/Angstrom,Angstrom)
----------------------------------------------------------------------
current energy                               -2.42552058 Hartree
energy change                      -0.00001807     0.00000900    F
constrained gradient max            0.00195062     0.00010000    F
constrained gradient rms            0.00079087     0.00006667    F
gradient max                        0.00195062
gradient rms                        0.00079087
cart. step max                      0.00378489     0.00100000    F
cart. step rms                      0.00191503     0.00066667    F
 
 
--------
Geometry
--------
Formula: HCl6OPa
Atoms
  Index Symbol   x (angstrom)   y (angstrom)   z (angstrom)
      1     Pa    -1.25323497    -0.03960332     0.16759555       adf.R=2.200
      2     Cl     1.20789950    -1.10319912    -0.13207069       adf.R=1.725
      3     Cl    -1.42515210    -1.98864064    -1.69025028       adf.R=1.725
      4     Cl    -1.68434522    -1.77603117     2.03245382       adf.R=1.725
      5     Cl    -3.84487711    -0.23188940    -0.55230462       adf.R=1.725
      6      O    -2.26636606     1.45450979     1.17582730       adf.R=1.517
      7     Cl     0.48916615     1.28746870     1.83216333       adf.R=1.725
      8     Cl    -0.72131657     1.59881909    -1.76166168       adf.R=1.725
      9      H    -1.77876001     2.02971687     1.77936635       adf.R=1.350
 
Total System Charge            -2.00000
Bonding info available!
 
 *** GO1_GOStep11 ***

 SOLVATION
-------------------------------------------

  The Delley construction of COSMO surface surface is calculated

       Division Level for Surface Triangles (NDIV)                  3
       Final Division Level for Triangles (NFDIV)                   1
       Radius of the Solvent (RSOL)                           1.93000 angstr
  Dielectric Constant (EPSL)                                 78.39000

       COSMO equation is solved iteratively-               conjugate-gradient

       Maximun of Iterations for Charges (NCIX)                  1000
       Criterion for Charge convergence (CCNV)                1.0E-08

  COSMO charges included variationally in SCF

       COSMO included at every SCF cycle

  Geometry-dependent empirical factor                         0.00000

  C-Matrix calculated in cspmtx

  In cspmtx, C-Matrix calculated using fitted potential

-------------------------------------------



 -------------------------------------------
  COSMO surface
  Area             =          626.212
  Volume           =         1165.838
  Number of Points =         1375
 -------------------------------------------
 
 RIHartreeFock Dependency: number of modified vectors:           7
 cosmo_calcen: 0.5 (esolb+esolc) (Hartrees) =   -0.268135

 Solvation energy (screening term,uncorrected) =   -168.257172 kcal/mol

 Solvation energy (dispersion and cavitation terms) =      1.170969 kcal/mol
 Solvation Energy Contributions (Hartrees)
          esola   esolb+esolc
     0.26813484   -0.53626969
 esol last cycle   -0.26813484
  
 Hartree-Fock exchange energy:   -641.437722263858     
 cosmo_calcen: 0.5 (esolb+esolc) (Hartrees) =   -0.268135

 Solvation energy (screening term,uncorrected) =   -168.257179 kcal/mol

 Solvation energy (dispersion and cavitation terms) =      1.170969 kcal/mol
 Solvation Energy Contributions (Hartrees)
          esola   esolb+esolc
     0.26813485   -0.53626971
 esol last cycle   -0.26813485

 Energy gradients wrt nuclear displacements
 ==========================================

     Atom      Cartesian (a.u./angstrom)
                 X         Y         Z
 ----------------------------------------
     1 Pa    0.001739  0.000997  0.001485
     2 Cl    0.000234 -0.000165  0.000070
     3 Cl    0.000166 -0.000183 -0.000362
     4 Cl   -0.000033 -0.000327  0.000353
     5 Cl   -0.001228 -0.000377 -0.000494
     6 O    -0.000033  0.000138  0.000115
     7 Cl   -0.000677 -0.000634 -0.000711
     8 Cl    0.000169  0.000368 -0.000512
     9 H    -0.000337  0.000184  0.000055
 ----------------------------------------
 Mulliken charges used for AMS results%charges...

 dE(predicted):    -0.47082E-05, dE(actual):    -0.40645E-05, Trust radius:    0.800000, all in a.u.
 
----------------------------------------------------------------------
Geometry Convergence after Step  11       (Hartree/Angstrom,Angstrom)
----------------------------------------------------------------------
current energy                               -2.42552464 Hartree
energy change                      -0.00000406     0.00000900    T
constrained gradient max            0.00172875     0.00010000    F
constrained gradient rms            0.00062432     0.00006667    F
gradient max                        0.00172875
gradient rms                        0.00062432
cart. step max                      0.00675914     0.00100000    F
cart. step rms                      0.00295549     0.00066667    F
 
 
--------
Geometry
--------
Formula: HCl6OPa
Atoms
  Index Symbol   x (angstrom)   y (angstrom)   z (angstrom)
      1     Pa    -1.25450379    -0.04023298     0.16748344       adf.R=2.200
      2     Cl     1.20820769    -1.09731266    -0.13746712       adf.R=1.725
      3     Cl    -1.42613788    -1.99470476    -1.68349114       adf.R=1.725
      4     Cl    -1.68642663    -1.77748957     2.02923505       adf.R=1.725
      5     Cl    -3.84228979    -0.22887022    -0.55735952       adf.R=1.725
      6      O    -2.26572334     1.45399307     1.17787536       adf.R=1.517
      7     Cl     0.49078237     1.28729721     1.83531967       adf.R=1.725
      8     Cl    -0.72299338     1.59716542    -1.76030179       adf.R=1.725
      9      H    -1.77790164     2.03130528     1.77982511       adf.R=1.350
 
Total System Charge            -2.00000
Bonding info available!
 
 *** GO1_GOStep12 ***

 SOLVATION
-------------------------------------------

  The Delley construction of COSMO surface surface is calculated

       Division Level for Surface Triangles (NDIV)                  3
       Final Division Level for Triangles (NFDIV)                   1
       Radius of the Solvent (RSOL)                           1.93000 angstr
  Dielectric Constant (EPSL)                                 78.39000

       COSMO equation is solved iteratively-               conjugate-gradient

       Maximun of Iterations for Charges (NCIX)                  1000
       Criterion for Charge convergence (CCNV)                1.0E-08

  COSMO charges included variationally in SCF

       COSMO included at every SCF cycle

  Geometry-dependent empirical factor                         0.00000

  C-Matrix calculated in cspmtx

  In cspmtx, C-Matrix calculated using fitted potential

-------------------------------------------



 -------------------------------------------
  COSMO surface
  Area             =          626.300
  Volume           =         1165.980
  Number of Points =         1374
 -------------------------------------------
 
 RIHartreeFock Dependency: number of modified vectors:           7
 cosmo_calcen: 0.5 (esolb+esolc) (Hartrees) =   -0.268157

 Solvation energy (screening term,uncorrected) =   -168.270773 kcal/mol

 Solvation energy (dispersion and cavitation terms) =      1.171132 kcal/mol
 Solvation Energy Contributions (Hartrees)
          esola   esolb+esolc
     0.26815652   -0.53631303
 esol last cycle   -0.26815652
  
 Hartree-Fock exchange energy:   -641.438310595228     
 cosmo_calcen: 0.5 (esolb+esolc) (Hartrees) =   -0.268157

 Solvation energy (screening term,uncorrected) =   -168.270782 kcal/mol

 Solvation energy (dispersion and cavitation terms) =      1.171132 kcal/mol
 Solvation Energy Contributions (Hartrees)
          esola   esolb+esolc
     0.26815653   -0.53631306
 esol last cycle   -0.26815653

 Energy gradients wrt nuclear displacements
 ==========================================

     Atom      Cartesian (a.u./angstrom)
                 X         Y         Z
 ----------------------------------------
     1 Pa    0.001287  0.000666  0.001076
     2 Cl    0.000033 -0.000111 -0.000026
     3 Cl    0.000170  0.000002 -0.000108
     4 Cl   -0.000019 -0.000041 -0.000124
     5 Cl   -0.000778 -0.000485 -0.000472
     6 O    -0.000365 -0.000255 -0.000233
     7 Cl   -0.000360 -0.000458 -0.000547
     8 Cl    0.000085 -0.000026 -0.000023
     9 H    -0.000054  0.000708  0.000456
 ----------------------------------------
 Mulliken charges used for AMS results%charges...

 dE(predicted):    -0.64042E-05, dE(actual):    -0.11174E-04, Trust radius:    0.800000, all in a.u.
 
----------------------------------------------------------------------
Geometry Convergence after Step  12       (Hartree/Angstrom,Angstrom)
----------------------------------------------------------------------
current energy                               -2.42553582 Hartree
energy change                      -0.00001117     0.00000900    F
constrained gradient max            0.00127716     0.00010000    F
constrained gradient rms            0.00046836     0.00006667    F
gradient max                        0.00127716
gradient rms                        0.00046836
cart. step max                      0.00817623     0.00100000    F
cart. step rms                      0.00377023     0.00066667    F
 
 
--------
Geometry
--------
Formula: HCl6OPa
Atoms
  Index Symbol   x (angstrom)   y (angstrom)   z (angstrom)
      1     Pa    -1.25601399    -0.04129410     0.16664344       adf.R=2.200
      2     Cl     1.20920836    -1.08913643    -0.14264224       adf.R=1.725
      3     Cl    -1.42781908    -2.00264472    -1.67539758       adf.R=1.725
      4     Cl    -1.68872186    -1.77820239     2.02645100       adf.R=1.725
      5     Cl    -3.83917974    -0.22258804    -0.56313844       adf.R=1.725
      6      O    -2.26556179     1.45258083     1.17952047       adf.R=1.517
      7     Cl     0.49020718     1.28851310     1.83900859       adf.R=1.725
      8     Cl    -0.72550798     1.59567270    -1.75928280       adf.R=1.725
      9      H    -1.77359749     2.02824984     1.77995664       adf.R=1.350
 
Total System Charge            -2.00000
Bonding info available!
 
 *** GO1_GOStep13 ***

 SOLVATION
-------------------------------------------

  The Delley construction of COSMO surface surface is calculated

       Division Level for Surface Triangles (NDIV)                  3
       Final Division Level for Triangles (NFDIV)                   1
       Radius of the Solvent (RSOL)                           1.93000 angstr
  Dielectric Constant (EPSL)                                 78.39000

       COSMO equation is solved iteratively-               conjugate-gradient

       Maximun of Iterations for Charges (NCIX)                  1000
       Criterion for Charge convergence (CCNV)                1.0E-08

  COSMO charges included variationally in SCF

       COSMO included at every SCF cycle

  Geometry-dependent empirical factor                         0.00000

  C-Matrix calculated in cspmtx

  In cspmtx, C-Matrix calculated using fitted potential

-------------------------------------------



 -------------------------------------------
  COSMO surface
  Area             =          626.692
  Volume           =         1166.707
  Number of Points =         1377
 -------------------------------------------
 
 RIHartreeFock Dependency: number of modified vectors:           7
 cosmo_calcen: 0.5 (esolb+esolc) (Hartrees) =   -0.268068

 Solvation energy (screening term,uncorrected) =   -168.215077 kcal/mol

 Solvation energy (dispersion and cavitation terms) =      1.171866 kcal/mol
 Solvation Energy Contributions (Hartrees)
          esola   esolb+esolc
     0.26806776   -0.53613552
 esol last cycle   -0.26806776
  
 Hartree-Fock exchange energy:   -641.439416044148     
 cosmo_calcen: 0.5 (esolb+esolc) (Hartrees) =   -0.268068

 Solvation energy (screening term,uncorrected) =   -168.215076 kcal/mol

 Solvation energy (dispersion and cavitation terms) =      1.171866 kcal/mol
 Solvation Energy Contributions (Hartrees)
          esola   esolb+esolc
     0.26806776   -0.53613552
 esol last cycle   -0.26806776

 Energy gradients wrt nuclear displacements
 ==========================================

     Atom      Cartesian (a.u./angstrom)
                 X         Y         Z
 ----------------------------------------
     1 Pa    0.000771  0.000402  0.000681
     2 Cl   -0.000134 -0.000007 -0.000049
     3 Cl    0.000154  0.000154  0.000091
     4 Cl   -0.000004  0.000286 -0.000584
     5 Cl   -0.000173 -0.000411 -0.000258
     6 O    -0.000345 -0.000531 -0.000449
     7 Cl   -0.000267 -0.000288 -0.000447
     8 Cl   -0.000033 -0.000416  0.000526
     9 H     0.000031  0.000812  0.000489
 ----------------------------------------
 Mulliken charges used for AMS results%charges...

 dE(predicted):    -0.63739E-05, dE(actual):    -0.14500E-04, Trust radius:    0.800000, all in a.u.
 
----------------------------------------------------------------------
Geometry Convergence after Step  13       (Hartree/Angstrom,Angstrom)
----------------------------------------------------------------------
current energy                               -2.42555032 Hartree
energy change                      -0.00001450     0.00000900    F
constrained gradient max            0.00082542     0.00010000    F
constrained gradient rms            0.00039488     0.00006667    F
gradient max                        0.00082542
gradient rms                        0.00039488
cart. step max                      0.00957235     0.00100000    F
cart. step rms                      0.00465795     0.00066667    F
 
 
--------
Geometry
--------
Formula: HCl6OPa
Atoms
  Index Symbol   x (angstrom)   y (angstrom)   z (angstrom)
      1     Pa    -1.25788127    -0.04230309     0.16496957       adf.R=2.200
      2     Cl     1.21057284    -1.07956408    -0.14692497       adf.R=1.725
      3     Cl    -1.42999346    -2.01169028    -1.66681398       adf.R=1.725
      4     Cl    -1.69049169    -1.77748090     2.02510798       adf.R=1.725
      5     Cl    -3.83617955    -0.21381971    -0.57018896       adf.R=1.725
      6      O    -2.26581865     1.45051487     1.18094314       adf.R=1.517
      7     Cl     0.48766657     1.29077094     1.84299866       adf.R=1.725
      8     Cl    -0.72866914     1.59450331    -1.75974139       adf.R=1.725
      9      H    -1.76619204     2.02021973     1.78076902       adf.R=1.350
 
Total System Charge            -2.00000
Bonding info available!
 
 *** GO1_GOStep14 ***

 SOLVATION
-------------------------------------------

  The Delley construction of COSMO surface surface is calculated

       Division Level for Surface Triangles (NDIV)                  3
       Final Division Level for Triangles (NFDIV)                   1
       Radius of the Solvent (RSOL)                           1.93000 angstr
  Dielectric Constant (EPSL)                                 78.39000

       COSMO equation is solved iteratively-               conjugate-gradient

       Maximun of Iterations for Charges (NCIX)                  1000
       Criterion for Charge convergence (CCNV)                1.0E-08

  COSMO charges included variationally in SCF

       COSMO included at every SCF cycle

  Geometry-dependent empirical factor                         0.00000

  C-Matrix calculated in cspmtx

  In cspmtx, C-Matrix calculated using fitted potential

-------------------------------------------



 -------------------------------------------
  COSMO surface
  Area             =          626.677
  Volume           =         1166.489
  Number of Points =         1376
 -------------------------------------------
 
 RIHartreeFock Dependency: number of modified vectors:           7
 cosmo_calcen: 0.5 (esolb+esolc) (Hartrees) =   -0.267875

 Solvation energy (screening term,uncorrected) =   -168.094230 kcal/mol

 Solvation energy (dispersion and cavitation terms) =      1.171838 kcal/mol
 Solvation Energy Contributions (Hartrees)
          esola   esolb+esolc
     0.26787518   -0.53575036
 esol last cycle   -0.26787518
  
 Hartree-Fock exchange energy:   -641.440582240484     
 cosmo_calcen: 0.5 (esolb+esolc) (Hartrees) =   -0.267875

 Solvation energy (screening term,uncorrected) =   -168.094228 kcal/mol

 Solvation energy (dispersion and cavitation terms) =      1.171838 kcal/mol
 Solvation Energy Contributions (Hartrees)
          esola   esolb+esolc
     0.26787518   -0.53575035
 esol last cycle   -0.26787518

 Energy gradients wrt nuclear displacements
 ==========================================

     Atom      Cartesian (a.u./angstrom)
                 X         Y         Z
 ----------------------------------------
     1 Pa    0.000235  0.000251  0.000338
     2 Cl   -0.000196  0.000128  0.000003
     3 Cl    0.000094  0.000227  0.000190
     4 Cl    0.000012  0.000568 -0.000867
     5 Cl    0.000420 -0.000246  0.000009
     6 O    -0.000007 -0.000619 -0.000402
     7 Cl   -0.000370 -0.000161 -0.000387
     8 Cl   -0.000138 -0.000676  0.000930
     9 H    -0.000050  0.000530  0.000186
 ----------------------------------------
 Mulliken charges used for AMS results%charges...

 dE(predicted):    -0.59996E-05, dE(actual):    -0.16041E-04, Trust radius:    0.800000, all in a.u.
 
----------------------------------------------------------------------
Geometry Convergence after Step  14       (Hartree/Angstrom,Angstrom)
----------------------------------------------------------------------
current energy                               -2.42556636 Hartree
energy change                      -0.00001604     0.00000900    F
constrained gradient max            0.00091665     0.00010000    F
constrained gradient rms            0.00039112     0.00006667    F
gradient max                        0.00091665
gradient rms                        0.00039112
cart. step max                      0.00891160     0.00100000    F
cart. step rms                      0.00355885     0.00066667    F
 
 
--------
Geometry
--------
Formula: HCl6OPa
Atoms
  Index Symbol   x (angstrom)   y (angstrom)   z (angstrom)
      1     Pa    -1.25933240    -0.04249225     0.16327929       adf.R=2.200
      2     Cl     1.21133651    -1.07359188    -0.14855277       adf.R=1.725
      3     Cl    -1.43118674    -2.01760418    -1.66164430       adf.R=1.725
      4     Cl    -1.69053351    -1.77568261     2.02594025       adf.R=1.725
      5     Cl    -3.83492490    -0.20670186    -0.57560461       adf.R=1.725
      6      O    -2.26648586     1.44905973     1.18156248       adf.R=1.517
      7     Cl     0.48516251     1.29280441     1.84542019       adf.R=1.725
      8     Cl    -0.73087102     1.59405130    -1.76204313       adf.R=1.725
      9      H    -1.76015098     2.01130812     1.78276166       adf.R=1.350
 
Total System Charge            -2.00000
Bonding info available!
 
 *** GO1_GOStep15 ***

 SOLVATION
-------------------------------------------

  The Delley construction of COSMO surface surface is calculated

       Division Level for Surface Triangles (NDIV)                  3
       Final Division Level for Triangles (NFDIV)                   1
       Radius of the Solvent (RSOL)                           1.93000 angstr
  Dielectric Constant (EPSL)                                 78.39000

       COSMO equation is solved iteratively-               conjugate-gradient

       Maximun of Iterations for Charges (NCIX)                  1000
       Criterion for Charge convergence (CCNV)                1.0E-08

  COSMO charges included variationally in SCF

       COSMO included at every SCF cycle

  Geometry-dependent empirical factor                         0.00000

  C-Matrix calculated in cspmtx

  In cspmtx, C-Matrix calculated using fitted potential

-------------------------------------------



 -------------------------------------------
  COSMO surface
  Area             =          626.981
  Volume           =         1167.233
  Number of Points =         1376
 -------------------------------------------
 
 RIHartreeFock Dependency: number of modified vectors:           7
 cosmo_calcen: 0.5 (esolb+esolc) (Hartrees) =   -0.267674

 Solvation energy (screening term,uncorrected) =   -167.967709 kcal/mol

 Solvation energy (dispersion and cavitation terms) =      1.172405 kcal/mol
 Solvation Energy Contributions (Hartrees)
          esola   esolb+esolc
     0.26767355   -0.53534711
 esol last cycle   -0.26767355
  
 Hartree-Fock exchange energy:   -641.440881985022     
 cosmo_calcen: 0.5 (esolb+esolc) (Hartrees) =   -0.267674

 Solvation energy (screening term,uncorrected) =   -167.967717 kcal/mol

 Solvation energy (dispersion and cavitation terms) =      1.172405 kcal/mol
 Solvation Energy Contributions (Hartrees)
          esola   esolb+esolc
     0.26767357   -0.53534713
 esol last cycle   -0.26767357

 Energy gradients wrt nuclear displacements
 ==========================================

     Atom      Cartesian (a.u./angstrom)
                 X         Y         Z
 ----------------------------------------
     1 Pa   -0.000150  0.000448  0.000259
     2 Cl   -0.000128  0.000141  0.000072
     3 Cl    0.000111  0.000158  0.000123
     4 Cl    0.000044  0.000560 -0.000764
     5 Cl    0.000617 -0.000069  0.000178
     6 O     0.000291 -0.000613 -0.000295
     7 Cl   -0.000472 -0.000119 -0.000303
     8 Cl   -0.000155 -0.000648  0.000888
     9 H    -0.000158  0.000141 -0.000157
 ----------------------------------------
 Mulliken charges used for AMS results%charges...

 dE(predicted):    -0.38257E-05, dE(actual):    -0.12210E-05, Trust radius:    0.800000, all in a.u.
 
----------------------------------------------------------------------
Geometry Convergence after Step  15       (Hartree/Angstrom,Angstrom)
----------------------------------------------------------------------
current energy                               -2.42556758 Hartree
energy change                      -0.00000122     0.00000900    T
constrained gradient max            0.00087423     0.00010000    F
constrained gradient rms            0.00037470     0.00006667    F
gradient max                        0.00087423
gradient rms                        0.00037470
cart. step max                      0.01007020     0.00100000    F
cart. step rms                      0.00377758     0.00066667    F
 
 
--------
Geometry
--------
Formula: HCl6OPa
Atoms
  Index Symbol   x (angstrom)   y (angstrom)   z (angstrom)
      1     Pa    -1.26081365    -0.04234619     0.16126238       adf.R=2.200
      2     Cl     1.21194693    -1.06835302    -0.14980708       adf.R=1.725
      3     Cl    -1.43225475    -2.02348913    -1.65681558       adf.R=1.725
      4     Cl    -1.68985974    -1.77301903     2.02808015       adf.R=1.725
      5     Cl    -3.83415766    -0.19952816    -0.58246992       adf.R=1.725
      6      O    -2.26718916     1.44806895     1.18244610       adf.R=1.517
      7     Cl     0.48331216     1.29485877     1.84718869       adf.R=1.725
      8     Cl    -0.73289963     1.59372067    -1.76594548       adf.R=1.725
      9      H    -1.75507088     2.00123792     1.78717982       adf.R=1.350
 
Total System Charge            -2.00000
Bonding info available!
 
 *** GO1_GOStep16 ***

 SOLVATION
-------------------------------------------

  The Delley construction of COSMO surface surface is calculated

       Division Level for Surface Triangles (NDIV)                  3
       Final Division Level for Triangles (NFDIV)                   1
       Radius of the Solvent (RSOL)                           1.93000 angstr
  Dielectric Constant (EPSL)                                 78.39000

       COSMO equation is solved iteratively-               conjugate-gradient

       Maximun of Iterations for Charges (NCIX)                  1000
       Criterion for Charge convergence (CCNV)                1.0E-08

  COSMO charges included variationally in SCF

       COSMO included at every SCF cycle

  Geometry-dependent empirical factor                         0.00000

  C-Matrix calculated in cspmtx

  In cspmtx, C-Matrix calculated using fitted potential

-------------------------------------------



 -------------------------------------------
  COSMO surface
  Area             =          627.087
  Volume           =         1167.378
  Number of Points =         1376
 -------------------------------------------
 
 RIHartreeFock Dependency: number of modified vectors:           7
 cosmo_calcen: 0.5 (esolb+esolc) (Hartrees) =   -0.267463

 Solvation energy (screening term,uncorrected) =   -167.835506 kcal/mol

 Solvation energy (dispersion and cavitation terms) =      1.172605 kcal/mol
 Solvation Energy Contributions (Hartrees)
          esola   esolb+esolc
     0.26746288   -0.53492575
 esol last cycle   -0.26746288
  
 Hartree-Fock exchange energy:   -641.440300164324     
 cosmo_calcen: 0.5 (esolb+esolc) (Hartrees) =   -0.267463

 Solvation energy (screening term,uncorrected) =   -167.835513 kcal/mol

 Solvation energy (dispersion and cavitation terms) =      1.172605 kcal/mol
 Solvation Energy Contributions (Hartrees)
          esola   esolb+esolc
     0.26746289   -0.53492577
 esol last cycle   -0.26746289

 Energy gradients wrt nuclear displacements
 ==========================================

     Atom      Cartesian (a.u./angstrom)
                 X         Y         Z
 ----------------------------------------
     1 Pa   -0.000366  0.000408  0.000089
     2 Cl    0.000038  0.000115  0.000156
     3 Cl    0.000130  0.000007 -0.000049
     4 Cl    0.000067  0.000375 -0.000412
     5 Cl    0.000569  0.000046  0.000220
     6 O     0.000404 -0.000264 -0.000024
     7 Cl   -0.000473 -0.000058 -0.000164
     8 Cl   -0.000116 -0.000401  0.000575
     9 H    -0.000253 -0.000229 -0.000391
 ----------------------------------------
 Mulliken charges used for AMS results%charges...

 dE(predicted):    -0.35558E-05, dE(actual):    -0.46291E-05, Trust radius:    0.800000, all in a.u.
 
----------------------------------------------------------------------
Geometry Convergence after Step  16       (Hartree/Angstrom,Angstrom)
----------------------------------------------------------------------
current energy                               -2.42557221 Hartree
energy change                      -0.00000463     0.00000900    T
constrained gradient max            0.00056109     0.00010000    F
constrained gradient rms            0.00028722     0.00006667    F
gradient max                        0.00056109
gradient rms                        0.00028722
cart. step max                      0.00466253     0.00100000    F
cart. step rms                      0.00199292     0.00066667    F
 
 
--------
Geometry
--------
Formula: HCl6OPa
Atoms
  Index Symbol   x (angstrom)   y (angstrom)   z (angstrom)
      1     Pa    -1.26151627    -0.04192036     0.16034292       adf.R=2.200
      2     Cl     1.21206109    -1.06623896    -0.15100449       adf.R=1.725
      3     Cl    -1.43266660    -2.02653082    -1.65406672       adf.R=1.725
      4     Cl    -1.68927595    -1.77160761     2.02954120       adf.R=1.725
      5     Cl    -3.83399039    -0.19628975    -0.58713245       adf.R=1.725
      6      O    -2.26743741     1.44787140     1.18326202       adf.R=1.517
      7     Cl     0.48375309     1.29557554     1.84780516       adf.R=1.725
      8     Cl    -0.73359461     1.59344179    -1.76878397       adf.R=1.725
      9      H    -1.75431932     1.99684957     1.79115541       adf.R=1.350
 
Total System Charge            -2.00000
Bonding info available!
 
 *** GO1_GOStep17 ***

 SOLVATION
-------------------------------------------

  The Delley construction of COSMO surface surface is calculated

       Division Level for Surface Triangles (NDIV)                  3
       Final Division Level for Triangles (NFDIV)                   1
       Radius of the Solvent (RSOL)                           1.93000 angstr
  Dielectric Constant (EPSL)                                 78.39000

       COSMO equation is solved iteratively-               conjugate-gradient

       Maximun of Iterations for Charges (NCIX)                  1000
       Criterion for Charge convergence (CCNV)                1.0E-08

  COSMO charges included variationally in SCF

       COSMO included at every SCF cycle

  Geometry-dependent empirical factor                         0.00000

  C-Matrix calculated in cspmtx

  In cspmtx, C-Matrix calculated using fitted potential

-------------------------------------------



 -------------------------------------------
  COSMO surface
  Area             =          627.634
  Volume           =         1168.315
  Number of Points =         1375
 -------------------------------------------
 
 RIHartreeFock Dependency: number of modified vectors:           7
 cosmo_calcen: 0.5 (esolb+esolc) (Hartrees) =   -0.267395

 Solvation energy (screening term,uncorrected) =   -167.792867 kcal/mol

 Solvation energy (dispersion and cavitation terms) =      1.173627 kcal/mol
 Solvation Energy Contributions (Hartrees)
          esola   esolb+esolc
     0.26739493   -0.53478985
 esol last cycle   -0.26739493
  
 Hartree-Fock exchange energy:   -641.439363987810     
 cosmo_calcen: 0.5 (esolb+esolc) (Hartrees) =   -0.267395

 Solvation energy (screening term,uncorrected) =   -167.792872 kcal/mol

 Solvation energy (dispersion and cavitation terms) =      1.173627 kcal/mol
 Solvation Energy Contributions (Hartrees)
          esola   esolb+esolc
     0.26739493   -0.53478987
 esol last cycle   -0.26739493

 Energy gradients wrt nuclear displacements
 ==========================================

     Atom      Cartesian (a.u./angstrom)
                 X         Y         Z
 ----------------------------------------
     1 Pa   -0.000439  0.000301  0.000015
     2 Cl    0.000150  0.000062  0.000171
     3 Cl    0.000152 -0.000092 -0.000160
     4 Cl    0.000066  0.000173 -0.000131
     5 Cl    0.000377  0.000017  0.000120
     6 O     0.000219 -0.000062  0.000044
     7 Cl   -0.000283  0.000005 -0.000009
     8 Cl   -0.000046 -0.000171  0.000244
     9 H    -0.000197 -0.000233 -0.000293
 ----------------------------------------
 Mulliken charges used for AMS results%charges...

 dE(predicted):    -0.16097E-05, dE(actual):    -0.50676E-05, Trust radius:    0.800000, all in a.u.
 
----------------------------------------------------------------------
Geometry Convergence after Step  17       (Hartree/Angstrom,Angstrom)
----------------------------------------------------------------------
current energy                               -2.42557728 Hartree
energy change                      -0.00000507     0.00000900    T
constrained gradient max            0.00045007     0.00010000    F
constrained gradient rms            0.00018441     0.00006667    F
gradient max                        0.00045007
gradient rms                        0.00018441
cart. step max                      0.00326267     0.00100000    F
cart. step rms                      0.00125457     0.00066667    F
 
 
--------
Geometry
--------
Formula: HCl6OPa
Atoms
[...]
     6     O       0.013170   0.057607  -0.066483
     7    Cl       0.002096   0.005448  -0.006884
     8    Cl      -0.000903   0.001692   0.003749
     9     H      -0.174641  -0.661005   0.724243
 
 Mode:    25      Frequency (cm-1):      459.5950     Intensity (km/mol):      600.1746
 Index  Atom      ---- Displacements (x/y/z) ----
     1    Pa      -0.004711  -0.000196  -0.001098
     2    Cl      -0.006638   0.003438   0.001485
     3    Cl       0.000510   0.007085   0.006019
     4    Cl       0.002357   0.007473  -0.008384
     5    Cl       0.016605   0.009087   0.011989
     6     O       0.100954  -0.078416  -0.044763
     7    Cl      -0.001624   0.003770   0.002174
     8    Cl      -0.001806  -0.006957   0.008091
     9     H      -0.848624   0.460305   0.220616
 
 Mode:    26      Frequency (cm-1):      545.9943     Intensity (km/mol):      190.8792
 Index  Atom      ---- Displacements (x/y/z) ----
     1    Pa       0.012103  -0.023799  -0.017377
     2    Cl       0.014985  -0.005112  -0.001080
     3    Cl      -0.001039  -0.010593  -0.009703
     4    Cl      -0.003543  -0.013162   0.016124
     5    Cl      -0.020951  -0.003824  -0.008661
     6     O      -0.153593   0.317466   0.235366
     7    Cl       0.013977   0.013765   0.015834
     8    Cl       0.004456   0.014680  -0.015559
     9     H      -0.610507   0.564667   0.353692
 
 Mode:    27      Frequency (cm-1):     3767.6313     Intensity (km/mol):      266.8816
 Index  Atom      ---- Displacements (x/y/z) ----
     1    Pa       0.000054  -0.000083  -0.000057
     2    Cl      -0.000044  -0.000017  -0.000029
     3    Cl      -0.000003   0.000048   0.000043
     4    Cl       0.000010   0.000090  -0.000075
     5    Cl       0.000106   0.000037   0.000056
     6     O      -0.031953  -0.034916  -0.039360
     7    Cl      -0.000271  -0.000156  -0.000217
     8    Cl      -0.000032  -0.000063   0.000095
     9     H       0.502946   0.575188   0.642195

 Vibrational polarizability tensor (a.u.):
                  X                   Y                   Z
 X            3079.79934           241.59779           307.63492
 Y             241.59779          3264.55998           596.69240
 Z             307.63492           596.69240          3282.29262

 Isotropic =      3208.9    atomic units

PES point character: Geometry corresponds to a local minimum on the PES.




 ============================
 Statistical Thermal Analysis  ***  ideal gas assumed  ***
 ============================
  
 Pressure:                  1.000000 atm.
 Temperature:             298.150000 K



 Moments of Inertia [amu*bohr^2] and principal axis
 ==================================================

        3265.2782       3912.5627       3981.6362
 ------------------------------------------------
           0.8158         -0.2550         -0.5191
           0.3068         -0.5700          0.7622
           0.4902          0.7811          0.3868


 The rotational contribution to the molecular entropy includes
 a term, dependent on the symmetry number sigma. The results 
 reported below were computed using sigma = 1, determined from
 the point group symmetry of the input geometry (NOSYM). 
 If this is not the correct symmetry, try symmetrizing the molecule before
 running the calculation (note: linear molecules should be aligned along one
 of the Cartesian axes).
 Contributions from frequencies below 20 1/cm are not included in vibrational sums.
 Their contributions, if any, are reported separately.


     Temp                                                        Transl      Rotat     Vibrat     Total
     ----                                                        ------      -----     ------     -----

     298.15   Entropy (cal/mol-K):                               44.253     32.298     47.569    124.119
              Nuclear Internal Energy (kcal/mol):                 0.889      0.889     17.943     19.720
              Constant Volume Heat Capacity (cal/mol-K):          2.981      2.981     33.852     39.814
          (c) Constant Volume Heat Capacity (cal/mol-K):          2.981      2.981     30.569     36.531

 Contributions from frequencies below 20 1/cm
 Frequency (1/cm):                                   16.354
 Entropy (cal/mol-K):                                 7.034
 Nuclear Internal Energy (kcal/mol):                  0.593
 Constant Volume Heat Capacity (cal/mol-K):           1.986

       Summary of energy terms
                                                   hartree              eV         kcal/mol           kJ/mol
                                      --------------------     -----------       ----------      -----------
      Energy from Engine:               -2.425590300458773        -66.0037         -1522.08         -6368.39
      Nuclear Internal Energy:           0.031426042472551          0.8551            19.72            82.51
  (c) Nuclear Internal Energy:           0.029683484895404          0.8077            18.63            77.93
      Internal Energy U:                -2.394164257986221        -65.1485         -1502.36         -6285.88
      pV/n = RT:                         0.000944186013486          0.0257             0.59             2.48
      Enthalpy H:                       -2.393220071972735        -65.1228         -1501.77         -6283.40
      -T*S:                             -0.058973080421227         -1.6047           -37.01          -154.83
  (c) -T*S:                             -0.059298990008224         -1.6136           -37.21          -155.69
      Gibbs free energy:                -2.452193152393963        -66.7276         -1538.77         -6438.23
 
 
 
  (c) The properties marked with this symbol have been corrected using 'low vibrational frequency free rotor
      interpolation corrections'. For those terms all positive frequencies are used (also ones below 20 1/cm),
      but the contribution to the partition function of small vibrational frequencies is modified as described
      in the following paper:
      S. Grimme, 'Supramolecular Binding Thermodynamics by Dispersion-Corrected Density Functional Theory'
      (Chem. Eur. J. 2012, 18, 9955-9964)
      Configuration: Dampener Frequency          :   100.000 1/cm
                     Dampener Alpha              :     4.000
                     Averaging Moment of Inertia : 1.000E-44 kg m2

--------------
Atomic charges
--------------
  Index   Atom    Charge
      1     Pa    1.4490
      2     Cl   -0.5152
      3     Cl   -0.5061
      4     Cl   -0.4271
      5     Cl   -0.5232
      6      O   -0.6238
      7     Cl   -0.5817
      8     Cl   -0.4287
      9      H    0.1568


Dipole moment vector    (Debye):     9.93342602    4.05121469    1.11564820
              magnitude (Debye):    10.78563693


-----------------------
Molecular orbitals info
-----------------------
n orbitals:              376
n spin:                    1

Note: only printing virtual orbitals with
      energy smaller than HOMO + 100. eV

HOMO (eV):              -7.2865
LUMO (eV):              -2.7378
HOMO-LUMO gap (eV):      4.5488

   Index   Energy (eV)    Occupation
     286       90.9390         0.000       
     285       89.4647         0.000       
     284       85.8028         0.000       
     283       85.3513         0.000       
     282       84.4480         0.000       
     281       84.0035         0.000       
     280       81.4186         0.000       
     279       80.7943         0.000       
     278       78.9910         0.000       
     277       77.1650         0.000       
     276       76.3839         0.000       
     275       74.8568         0.000       
     274       73.5823         0.000       
     273       73.5365         0.000       
     272       73.1456         0.000       
     271       72.6955         0.000       
     270       72.5090         0.000       
     269       72.0027         0.000       
     268       71.4409         0.000       
     267       71.2216         0.000       
     266       70.4398         0.000       
     265       70.3551         0.000       
     264       70.2278         0.000       
     263       69.1243         0.000       
     262       68.6968         0.000       
     261       68.4700         0.000       
     260       68.3171         0.000       
     259       67.6850         0.000       
     258       66.6732         0.000       
     257       65.9796         0.000       
     256       65.8989         0.000       
     255       65.1120         0.000       
     254       64.3125         0.000       
     253       62.0969         0.000       
     252       59.4159         0.000       
     251       58.0436         0.000       
     250       57.8433         0.000       
     249       54.9370         0.000       
     248       50.8919         0.000       
     247       49.0300         0.000       
     246       46.3559         0.000       
     245       45.6474         0.000       
     244       44.6913         0.000       
     243       43.0746         0.000       
     242       42.5205         0.000       
     241       42.1507         0.000       
     240       41.6215         0.000       
     239       41.5733         0.000       
     238       41.3603         0.000       
     237       41.0576         0.000       
     236       40.7493         0.000       
     235       40.4597         0.000       
     234       40.0873         0.000       
     233       39.7375         0.000       
     232       39.2476         0.000       
     231       39.1922         0.000       
     230       39.0520         0.000       
     229       38.9078         0.000       
     228       38.6719         0.000       
     227       38.5939         0.000       
     226       38.5607         0.000       
     225       38.3416         0.000       
     224       37.9577         0.000       
     223       37.9324         0.000       
     222       37.6542         0.000       
     221       37.5987         0.000       
     220       37.2462         0.000       
     219       37.1590         0.000       
     218       36.9409         0.000       
     217       36.8100         0.000       
     216       36.7785         0.000       
     215       36.5878         0.000       
     214       36.4137         0.000       
     213       36.3378         0.000       
     212       36.0572         0.000       
     211       36.0292         0.000       
     210       35.9452         0.000       
     209       35.7947         0.000       
     208       35.4549         0.000       
     207       34.5298         0.000       
     206       34.1475         0.000       
     205       33.9330         0.000       
     204       33.7571         0.000       
     203       33.6631         0.000       
     202       33.4667         0.000       
     201       32.2916         0.000       
     200       32.2136         0.000       
     199       30.4674         0.000       
     198       28.3543         0.000       
     197       28.0241         0.000       
     196       27.6420         0.000       
     195       26.9138         0.000       
     194       26.8784         0.000       
     193       25.9959         0.000       
     192       25.8536         0.000       
     191       25.0053         0.000       
     190       24.8960         0.000       
     189       23.9077         0.000       
     188       23.7456         0.000       
     187       23.3081         0.000       
     186       22.8473         0.000       
     185       22.0563         0.000       
     184       21.4449         0.000       
     183       21.2169         0.000       
     182       20.9006         0.000       
     181       20.8185         0.000       
     180       20.5038         0.000       
     179       19.9057         0.000       
     178       19.7724         0.000       
     177       19.0860         0.000       
     176       19.0598         0.000       
     175       18.7619         0.000       
     174       16.7612         0.000       
     173       16.4464         0.000       
     172       16.2954         0.000       
     171       16.2346         0.000       
     170       16.1499         0.000       
     169       15.7227         0.000       
     168       15.6388         0.000       
     167       15.4957         0.000       
     166       15.1866         0.000       
     165       15.0956         0.000       
     164       14.7836         0.000       
     163       14.4730         0.000       
     162       14.3369         0.000       
     161       14.2782         0.000       
     160       13.8603         0.000       
     159       13.7455         0.000       
     158       13.7014         0.000       
     157       13.6264         0.000       
     156       13.4982         0.000       
     155       13.4236         0.000       
     154       13.2451         0.000       
     153       13.1328         0.000       
     152       12.3812         0.000       
     151       11.8278         0.000       
     150       11.7651         0.000       
     149       11.4479         0.000       
     148       11.3818         0.000       
     147       11.1717         0.000       
     146       11.1075         0.000       
     145       10.8570         0.000       
     144       10.7005         0.000       
     143       10.6898         0.000       
     142       10.1848         0.000       
     141       10.0245         0.000       
     140        9.4967         0.000       
     139        9.4461         0.000       
     138        8.9940         0.000       
     137        8.9532         0.000       
     136        8.9507         0.000       
     135        8.6787         0.000       
     134        8.6049         0.000       
     133        8.1027         0.000       
     132        7.9813         0.000       
     131        7.9218         0.000       
     130        7.7203         0.000       
     129        7.4155         0.000       
     128        7.2376         0.000       
     127        6.9394         0.000       
     126        6.4452         0.000       
     125        5.5274         0.000       
     124        4.9299         0.000       
     123        3.8789         0.000       
     122        3.5657         0.000       
     121        3.3509         0.000       
     120        2.8811         0.000       
     119        2.8257         0.000       
     118        2.6889         0.000       
     117        2.5513         0.000       
     116        2.3454         0.000       
     115        1.8906         0.000       
     114        1.7584         0.000       
     113        1.2332         0.000       
     112        0.3459         0.000       
     111        0.1818         0.000       
     110       -0.6064         0.000       
     109       -2.3057         0.000       
     108       -2.3137         0.000       
     107       -2.4557         0.000       
     106       -2.5885         0.000       
     105       -2.6096         0.000       
     104       -2.6613         0.000       
     103       -2.7378         0.000 < LUMO
     102       -7.2865         2.000 < HOMO
     101       -7.8138         2.000       
     100       -8.0775         2.000       
      99       -8.1691         2.000       
      98       -8.1698         2.000       
      97       -8.2763         2.000       
      96       -8.5647         2.000       
      95       -8.7018         2.000       
      94       -8.8786         2.000       
      93       -8.9458         2.000       
      92       -8.9809         2.000       
      91       -9.0374         2.000       
      90       -9.2264         2.000       
      89       -9.2308         2.000       
      88       -9.5240         2.000       
      87       -9.7233         2.000       
      86      -10.0716         2.000       
      85      -10.3649         2.000       
      84      -10.3924         2.000       
      83      -10.7733         2.000       
      82      -13.6538         2.000       
      81      -21.0925         2.000       
      80      -21.2104         2.000       
      79      -21.3434         2.000       
      78      -21.3526         2.000       
      77      -21.7016         2.000       
      76      -22.1858         2.000       
      75      -24.9626         2.000       
      74      -26.6307         2.000       
      73      -26.8604         2.000       
      72      -29.2488         2.000       
      71      -51.1134         2.000       
      70     -101.4419         2.000       
      69     -101.4448         2.000       
      68     -101.4910         2.000       
      67     -101.5037         2.000       
      66     -101.5083         2.000       
      65     -195.9159         2.000       
      64     -195.9389         2.000       
      63     -195.9706         2.000       
      62     -195.9881         2.000       
      61     -196.0127         2.000       
      60     -196.0180         2.000       
      59     -196.0236         2.000       
      58     -196.0430         2.000       
      57     -196.0430         2.000       
      56     -196.0507         2.000       
      55     -196.0746         2.000       
      54     -196.0791         2.000       
      53     -196.5871         2.000       
      52     -196.5942         2.000       
      51     -196.5950         2.000       
      50     -196.6009         2.000       
      49     -196.6214         2.000       
      48     -196.6277         2.000       
      47     -208.7490         2.000       
      46     -208.7568         2.000       
      45     -208.8458         2.000       
      44     -259.4929         2.000       
      43     -259.5663         2.000       
      42     -259.5969         2.000       
      41     -259.6027         2.000       
      40     -260.1526         2.000       
      39     -260.1591         2.000       
      38     -307.3303         2.000       
      37     -362.6899         2.000       
      36     -362.6948         2.000       
      35     -362.7247         2.000       
      34     -362.7540         2.000       
      33     -362.7658         2.000       
      32     -362.7867         2.000       
      31     -362.7936         2.000       
      30     -523.1267         2.000       
      29     -714.5351         2.000       
      28     -714.5899         2.000       
      27     -714.6110         2.000       
      26     -714.6352         2.000       
      25     -714.6656         2.000       
      24    -1042.8484         2.000       
      23    -1042.9090         2.000       
      22    -1042.9628         2.000       
      21    -1361.0871         2.000       
      20    -2775.6760         2.000       
      19    -2775.7465         2.000       
      18    -2775.7780         2.000       
      17    -2775.7819         2.000       
      16    -2776.3351         2.000       
      15    -2776.3415         2.000       
      14    -3486.3534         2.000       
      13    -3486.3735         2.000       
      12    -3486.3841         2.000       
      11    -3486.3965         2.000       
      10    -3486.4066         2.000       
       9    -4348.6021         2.000       
       8    -4348.6347         2.000       
       7    -4348.6646         2.000       
       6    -5319.6933         2.000       
       5   -17562.5826         2.000       
       4   -17562.5845         2.000       
       3   -17562.5916         2.000       
       2   -21038.3862         2.000       
       1  -112700.0023         2.000       

Final PES point is a local minimum. Geometry optimization successful!


AMS application finished. Exiting.
NORMAL TERMINATION
     Total cpu time:   51897.29
  Total system time:    3620.35
 Total elapsed time:   55769.01
