

 Parallel Execution: Process Information
 ==============================================================================
 Rank   Node Name                              NodeID   MyNodeRank  NodeMaster
    0   u-0-9.local                               0          0          0
    1   u-0-9.local                               0          1         -1
    2   u-0-9.local                               0          2         -1
    3   u-0-9.local                               0          3         -1
    4   u-0-9.local                               0          4         -1
    5   u-0-9.local                               0          5         -1
    6   u-0-9.local                               0          6         -1
    7   u-0-9.local                               0          7         -1
    8   u-0-9.local                               1          0          1
    9   u-0-9.local                               1          1         -1
   10   u-0-9.local                               1          2         -1
   11   u-0-9.local                               1          3         -1
   12   u-0-9.local                               1          4         -1
   13   u-0-9.local                               1          5         -1
   14   u-0-9.local                               1          6         -1
   15   u-0-9.local                               1          7         -1
 ==============================================================================


May use up to 62455MB of RAM as shared memory on node 0
May use up to 62500MB of RAM as shared memory on node 1

 *******************************************************************************
 *                                                                             *
 *  --------------------------------                                           *
 *   Amsterdam Modeling Suite (AMS)              2024.103                      *
 *  --------------------------------                                           *
 *                                               r241004 2024-10-04 d82be5f7   *
 *                                                                             *
 *                                                                             *
 *                              =================                              *
 *                              |               |                              *
 *                              |     A M S     |                              *
 *                              |               |                              *
 *                              =================                              *
 *                                                                             *
 *                                                                             *
 *   Online information and documentation:  https://www.scm.com/support/       *
 *   E-mail:  support@scm.com   info@scm.com                                   *
 *                                                                             *
 *   Scientific publications using AMS results must be properly referenced     *
 *   See the User Manuals (or the web site) for recommended citations          *
 *   The terms and conditions of the End User License Agreement apply to       *
 *   the use of AMS, https://www.scm.com/license-terms/                        *
 *                                                                             *
 **********************  x86_64_linux_intel / intelmpi  ************************
 
 Licensed to: Dr. Val?rie Vallet / Laboratoire PhLAM UMR 8523 / Villeneuve d'Ascq Cedex / FRANCE 2024-12-20 16:14:47
 SCM User ID: u10325
  
 AMS 2024.103  RunTime: Jun05-2025 15:24:27  ShM Nodes: 2  Procs: 16

 AMS jobname: pao_cl5.pbe0.tz2p.opt-freq-solvation
 AMS jobid  : 694426681

 Start   directory: /state/partition2/shaaban/1052189.phlam-s-sakura/
 Results directory: /home/shaaban/ams/PhD/geometries-exafs/pao-chloride/pao_cl5/pao_cl5.pbe0.tz2p.opt-freq-solvation.results/
 Scratch directory: /state/partition2/shaaban/1052189.phlam-s-sakura/amstmp_pao_cl5.pbe0.tz2p.opt-freq-solvation_kid0.694426681/


 Communication costs MPI_COMM_WORLD:      1.188 usec per message,   0.0075 usec per 8-byte item
 Communication costs for intra-node:      0.529 usec per message,   0.0054 usec per 8-byte item

 RNG seed: 933456079 1451915891 400471469 2086583481 -1352019836 -423879201 289338083 372962986



                     *************************************************************************
                     *  ADF 2024.103  RunTime: Jun05-2025 15:24:28  ShM Nodes: 2  Procs: 16  *
                     *************************************************************************
  

       ***************************
       *  GEOMETRY OPTIMIZATION  *
       ***************************

Optimization Method                    Quasi Newton
Optimization Coordinates               Delocalized Coordinates
Optimize lattice                       F
 
 ------------------------------------------------------
 Convergence criteria (Hartree,Angstrom)
 ------------------------------------------------------
 Maximum gradient               0.000100000000
 Maximum rms gradient           0.000066666667
 Maximum step allowed           0.001000000000
 Maximum rms step allowed       0.000666666667
 Maximum energy change allowe   0.000007000000
 Maximum stress energy allowe   0.000500000000
 
Initial model Hessian                  Automatic Hessian
 
------------------------------------
Quasi-Newton Optimizer Parameters
------------------------------------
Hessian Update Method                  BFGS
Maximum number of steps                  250
First GDIIS cycle                          0
Maximum GDIIS vectors                      0
Trust radius (bohr)                        0.200000
Trust radius varies                        T
Constraints converged at all steps         T
Use projector                              T
 
 Rigid motions settings for: old optimizer
 Atomic rotations (x,y,z):     T T T
 Atomic translations (x,y,z):  T T T
 Tolerance:                   1.000000000000000E-006
 
--------
Geometry
--------
Formula: Cl5OPa
Atoms
  Index Symbol   x (angstrom)   y (angstrom)   z (angstrom)
      1     Pa    -0.00408603    -0.71497670     0.41631034       adf.R=2.200
      2     Cl    -0.90173868     1.74139497    -0.36230843       adf.R=1.725
      3     Cl     0.28004356    -3.44515912     0.02984130       adf.R=1.725
      4     Cl     1.40456435     0.99164956     1.99595002       adf.R=1.725
      5     Cl    -1.76163539    -1.24691102    -1.66902213       adf.R=1.725
      6     Cl     1.87902094    -0.58714914    -1.40666917       adf.R=1.725
      7      O    -1.33887688    -0.86766885     1.65466380       adf.R=1.517
 
Total System Charge            -2.00000
Bonding info available!
 
 
----------------
ADF Engine Input
----------------
 
 Basis
 Type TZ2P
 Core None
 End
 XC
 Hybrid PBE0
 End
 Solvation
 Surf Delley
 Solv name=Water cav0=0.0 cav1=0.0067639
 Charged method=CONJ
 C-Mat POT
 SCF VAR ALL
 CSMRSP
 End
 NumericalQuality Good
 MBPT
 SigmaFunctionalParametrization W1
 End
 

 Title: *** (NO TITLE) ***

 Using automatic Hessian for delocalized coordinates.
 *** GO1_GOStep1 ***

 SOLVATION
-------------------------------------------

  The Delley construction of COSMO surface surface is calculated

       Division Level for Surface Triangles (NDIV)                  3
       Final Division Level for Triangles (NFDIV)                   1
       Radius of the Solvent (RSOL)                           1.93000 angstr
  Dielectric Constant (EPSL)                                 78.39000

       COSMO equation is solved iteratively-               conjugate-gradient

       Maximun of Iterations for Charges (NCIX)                  1000
       Criterion for Charge convergence (CCNV)                1.0E-08

  COSMO charges included variationally in SCF

       COSMO included at every SCF cycle

  Geometry-dependent empirical factor                         0.00000

  C-Matrix calculated in cspmtx

  In cspmtx, C-Matrix calculated using fitted potential

-------------------------------------------



 -------------------------------------------
  COSMO surface
  Area             =          581.328
  Volume           =         1018.675
  Number of Points =         1272
 -------------------------------------------
 
 RIHartreeFock Dependency: number of modified vectors:           5
 cosmo_calcen: 0.5 (esolb+esolc) (Hartrees) =   -0.281490

 Solvation energy (screening term,uncorrected) =   -176.637422 kcal/mol

 Solvation energy (dispersion and cavitation terms) =      1.087038 kcal/mol
 Solvation Energy Contributions (Hartrees)
          esola   esolb+esolc
     0.28148962   -0.56297924
 esol last cycle   -0.28148962
  
 Hartree-Fock exchange energy:   -613.420376776371     
 cosmo_calcen: 0.5 (esolb+esolc) (Hartrees) =   -0.281490

 Solvation energy (screening term,uncorrected) =   -176.637420 kcal/mol

 Solvation energy (dispersion and cavitation terms) =      1.087038 kcal/mol
 Solvation Energy Contributions (Hartrees)
          esola   esolb+esolc
     0.28148962   -0.56297923
 esol last cycle   -0.28148962

 Energy gradients wrt nuclear displacements
 ==========================================

     Atom      Cartesian (a.u./angstrom)
                 X         Y         Z
 ----------------------------------------
     1 Pa    0.022227 -0.004004  0.025935
     2 Cl   -0.002640  0.006010 -0.001850
     3 Cl   -0.001949 -0.014986 -0.014082
     4 Cl   -0.001339  0.015661  0.000458
     5 Cl   -0.007237 -0.001281 -0.011506
     6 Cl    0.001855 -0.004270 -0.005396
     7 O    -0.010916  0.002870  0.006441
 ----------------------------------------
 Mulliken charges used for AMS results%charges...
 Residual max backtransformation error   0.2011E+02

 Delocalized step failed. Taking Cartesian step

 
----------------------------------------------------------------------
Geometry Convergence after Step   1       (Hartree/Angstrom,Angstrom)
----------------------------------------------------------------------
current energy                               -2.12028613 Hartree
energy change                      -2.12028613     0.00000700    F
constrained gradient max            0.02592950     0.00010000    F
constrained gradient rms            0.01048637     0.00006667    F
gradient max                        0.02592950
gradient rms                        0.01048637
cart. step max                      0.21986746     0.00100000    F
cart. step rms                      0.08244121     0.00066667    F
 
 
--------
Geometry
--------
Formula: Cl5OPa
Atoms
  Index Symbol   x (angstrom)   y (angstrom)   z (angstrom)
      1     Pa    -0.03846387    -0.68664265     0.33042895       adf.R=2.200
      2     Cl    -0.95305720     1.76140209    -0.42225494       adf.R=1.725
      3     Cl     0.31461144    -3.41172303     0.23930632       adf.R=1.725
      4     Cl     1.47576775     0.77178210     2.03449419       adf.R=1.725
      5     Cl    -1.81635303    -1.24307129    -1.70617807       adf.R=1.725
      6     Cl     1.88990563    -0.45287702    -1.42437129       adf.R=1.725
      7      O    -1.31511885    -0.86769049     1.60734059       adf.R=1.517
 
Total System Charge            -2.00000
Bonding info available!
 
 *** GO1_GOStep2 ***

 SOLVATION
-------------------------------------------

  The Delley construction of COSMO surface surface is calculated

       Division Level for Surface Triangles (NDIV)                  3
       Final Division Level for Triangles (NFDIV)                   1
       Radius of the Solvent (RSOL)                           1.93000 angstr
  Dielectric Constant (EPSL)                                 78.39000

       COSMO equation is solved iteratively-               conjugate-gradient

       Maximun of Iterations for Charges (NCIX)                  1000
       Criterion for Charge convergence (CCNV)                1.0E-08

  COSMO charges included variationally in SCF

       COSMO included at every SCF cycle

  Geometry-dependent empirical factor                         0.00000

  C-Matrix calculated in cspmtx

  In cspmtx, C-Matrix calculated using fitted potential

-------------------------------------------



 -------------------------------------------
  COSMO surface
  Area             =          579.789
  Volume           =         1008.483
  Number of Points =         1257
 -------------------------------------------
 
 RIHartreeFock Dependency: number of modified vectors:           5
 cosmo_calcen: 0.5 (esolb+esolc) (Hartrees) =   -0.273073

 Solvation energy (screening term,uncorrected) =   -171.356064 kcal/mol

 Solvation energy (dispersion and cavitation terms) =      1.084161 kcal/mol
 Solvation Energy Contributions (Hartrees)
          esola   esolb+esolc
     0.27307324   -0.54614648
 esol last cycle   -0.27307324
  
 Hartree-Fock exchange energy:   -613.436000346413     
 cosmo_calcen: 0.5 (esolb+esolc) (Hartrees) =   -0.273073

 Solvation energy (screening term,uncorrected) =   -171.356058 kcal/mol

 Solvation energy (dispersion and cavitation terms) =      1.084161 kcal/mol
 Solvation Energy Contributions (Hartrees)
          esola   esolb+esolc
     0.27307323   -0.54614646
 esol last cycle   -0.27307323

 Energy gradients wrt nuclear displacements
 ==========================================

     Atom      Cartesian (a.u./angstrom)
                 X         Y         Z
 ----------------------------------------
     1 Pa    0.006178 -0.002490  0.024614
     2 Cl   -0.005675  0.003653 -0.006294
     3 Cl   -0.002321 -0.015735 -0.004962
     4 Cl    0.002009  0.009430  0.003520
     5 Cl   -0.008916  0.002965 -0.009672
     6 Cl    0.002039  0.000645 -0.001354
     7 O     0.006686  0.001533 -0.005853
 ----------------------------------------
 Mulliken charges used for AMS results%charges...

 dE(predicted):    -0.20905E-02, dE(actual):    -0.59051E-02, Trust radius:    0.400000, all in a.u.
 
----------------------------------------------------------------------
Geometry Convergence after Step   2       (Hartree/Angstrom,Angstrom)
----------------------------------------------------------------------
current energy                               -2.12619123 Hartree
energy change                      -0.00590510     0.00000700    F
constrained gradient max            0.02461260     0.00010000    F
constrained gradient rms            0.00812946     0.00006667    F
gradient max                        0.02461260
gradient rms                        0.00812946
cart. step max                      0.21158696     0.00100000    F
cart. step rms                      0.07753000     0.00066667    F
 
 
--------
Geometry
--------
Formula: Cl5OPa
Atoms
  Index Symbol   x (angstrom)   y (angstrom)   z (angstrom)
      1     Pa    -0.08460655    -0.63591574     0.27052134       adf.R=2.200
      2     Cl    -0.99815726     1.87553497    -0.21066798       adf.R=1.725
      3     Cl     0.30342924    -3.34808878     0.24102187       adf.R=1.725
      4     Cl     1.50145346     0.76722973     1.94743131       adf.R=1.725
      5     Cl    -1.76494309    -1.39577508    -1.77298848       adf.R=1.725
      6     Cl     1.93039513    -0.55661907    -1.39622891       adf.R=1.725
      7      O    -1.33027905    -0.83518632     1.57967658       adf.R=1.517
 
Total System Charge            -2.00000
Bonding info available!
 
 *** GO1_GOStep3 ***

 SOLVATION
-------------------------------------------

  The Delley construction of COSMO surface surface is calculated

       Division Level for Surface Triangles (NDIV)                  3
       Final Division Level for Triangles (NFDIV)                   1
       Radius of the Solvent (RSOL)                           1.93000 angstr
  Dielectric Constant (EPSL)                                 78.39000

       COSMO equation is solved iteratively-               conjugate-gradient

       Maximun of Iterations for Charges (NCIX)                  1000
       Criterion for Charge convergence (CCNV)                1.0E-08

  COSMO charges included variationally in SCF

       COSMO included at every SCF cycle

  Geometry-dependent empirical factor                         0.00000

  C-Matrix calculated in cspmtx

  In cspmtx, C-Matrix calculated using fitted potential

-------------------------------------------



 -------------------------------------------
  COSMO surface
  Area             =          573.746
  Volume           =          997.770
  Number of Points =         1247
 -------------------------------------------
 
 RIHartreeFock Dependency: number of modified vectors:           5
 cosmo_calcen: 0.5 (esolb+esolc) (Hartrees) =   -0.270000

 Solvation energy (screening term,uncorrected) =   -169.427439 kcal/mol

 Solvation energy (dispersion and cavitation terms) =      1.072860 kcal/mol
 Solvation Energy Contributions (Hartrees)
          esola   esolb+esolc
     0.26999978   -0.53999956
 esol last cycle   -0.26999978
  
 Hartree-Fock exchange energy:   -613.436691724031     
 cosmo_calcen: 0.5 (esolb+esolc) (Hartrees) =   -0.270000

 Solvation energy (screening term,uncorrected) =   -169.427436 kcal/mol

 Solvation energy (dispersion and cavitation terms) =      1.072860 kcal/mol
 Solvation Energy Contributions (Hartrees)
          esola   esolb+esolc
     0.26999978   -0.53999956
 esol last cycle   -0.26999978

 Energy gradients wrt nuclear displacements
 ==========================================

     Atom      Cartesian (a.u./angstrom)
                 X         Y         Z
 ----------------------------------------
     1 Pa    0.003794  0.005338  0.012773
     2 Cl   -0.001968  0.008995  0.005392
     3 Cl   -0.003566 -0.012478 -0.007913
     4 Cl    0.000285  0.010185  0.000450
     5 Cl   -0.006572 -0.010281 -0.009821
     6 Cl    0.003077 -0.004058  0.002031
     7 O     0.004950  0.002299 -0.002912
 ----------------------------------------
 Mulliken charges used for AMS results%charges...

 dE(predicted):    -0.34069E-02, dE(actual):     0.82792E-04, Trust radius:    0.090712, all in a.u.
 
----------------------------------------------------------------------
Geometry Convergence after Step   3       (Hartree/Angstrom,Angstrom)
----------------------------------------------------------------------
current energy                               -2.12610844 Hartree
energy change                       0.00008279     0.00000700    F
constrained gradient max            0.01277327     0.00010000    F
constrained gradient rms            0.00679138     0.00006667    F
gradient max                        0.01277327
gradient rms                        0.00679138
cart. step max                      0.04495571     0.00100000    F
cart. step rms                      0.02125469     0.00066667    F
 
 
--------
Geometry
--------
Formula: Cl5OPa
Atoms
  Index Symbol   x (angstrom)   y (angstrom)   z (angstrom)
      1     Pa    -0.08646139    -0.63876092     0.27053680       adf.R=2.200
      2     Cl    -0.98295228     1.86528627    -0.24604816       adf.R=1.725
      3     Cl     0.33578240    -3.33439887     0.27795014       adf.R=1.725
      4     Cl     1.50488398     0.72227402     1.96757716       adf.R=1.725
      5     Cl    -1.77213032    -1.37248491    -1.76362598       adf.R=1.725
      6     Cl     1.90651866    -0.53072562    -1.41869923       adf.R=1.725
      7      O    -1.34834919    -0.84001026     1.57107500       adf.R=1.517
 
Total System Charge            -2.00000
Bonding info available!
 
 *** GO1_GOStep4 ***

 SOLVATION
-------------------------------------------

  The Delley construction of COSMO surface surface is calculated

       Division Level for Surface Triangles (NDIV)                  3
       Final Division Level for Triangles (NFDIV)                   1
       Radius of the Solvent (RSOL)                           1.93000 angstr
  Dielectric Constant (EPSL)                                 78.39000

       COSMO equation is solved iteratively-               conjugate-gradient

       Maximun of Iterations for Charges (NCIX)                  1000
       Criterion for Charge convergence (CCNV)                1.0E-08

  COSMO charges included variationally in SCF

       COSMO included at every SCF cycle

  Geometry-dependent empirical factor                         0.00000

  C-Matrix calculated in cspmtx

  In cspmtx, C-Matrix calculated using fitted potential

-------------------------------------------



 -------------------------------------------
  COSMO surface
  Area             =          576.329
  Volume           =         1001.742
  Number of Points =         1249
 -------------------------------------------
 
 RIHartreeFock Dependency: number of modified vectors:           5
 cosmo_calcen: 0.5 (esolb+esolc) (Hartrees) =   -0.269675

 Solvation energy (screening term,uncorrected) =   -169.223355 kcal/mol

 Solvation energy (dispersion and cavitation terms) =      1.077690 kcal/mol
 Solvation Energy Contributions (Hartrees)
          esola   esolb+esolc
     0.26967455   -0.53934911
 esol last cycle   -0.26967455
  
 Hartree-Fock exchange energy:   -613.436912627309     
 cosmo_calcen: 0.5 (esolb+esolc) (Hartrees) =   -0.269675

 Solvation energy (screening term,uncorrected) =   -169.223353 kcal/mol

 Solvation energy (dispersion and cavitation terms) =      1.077690 kcal/mol
 Solvation Energy Contributions (Hartrees)
          esola   esolb+esolc
     0.26967455   -0.53934910
 esol last cycle   -0.26967455

 Energy gradients wrt nuclear displacements
 ==========================================

     Atom      Cartesian (a.u./angstrom)
                 X         Y         Z
 ----------------------------------------
     1 Pa    0.008460  0.005146  0.008425
     2 Cl   -0.002322  0.007392  0.003629
     3 Cl   -0.003169 -0.011326 -0.006488
     4 Cl    0.000316  0.009021  0.000500
     5 Cl   -0.006273 -0.007598 -0.008804
     6 Cl    0.001984 -0.003472  0.001994
     7 O     0.001003  0.000838  0.000744
 ----------------------------------------
 Mulliken charges used for AMS results%charges...

 dE(predicted):    -0.16910E-02, dE(actual):    -0.15982E-02, Trust radius:    0.181425, all in a.u.
 
----------------------------------------------------------------------
Geometry Convergence after Step   4       (Hartree/Angstrom,Angstrom)
----------------------------------------------------------------------
current energy                               -2.12770661 Hartree
energy change                      -0.00159818     0.00000700    F
constrained gradient max            0.01132629     0.00010000    F
constrained gradient rms            0.00577843     0.00006667    F
gradient max                        0.01132629
gradient rms                        0.00577843
cart. step max                      0.09336408     0.00100000    F
cart. step rms                      0.04058039     0.00066667    F
 
 
--------
Geometry
--------
Formula: Cl5OPa
Atoms
  Index Symbol   x (angstrom)   y (angstrom)   z (angstrom)
      1     Pa    -0.08969136    -0.64343253     0.26462047       adf.R=2.200
      2     Cl    -0.98105997     1.83366700    -0.30923133       adf.R=1.725
      3     Cl     0.39399061    -3.30063231     0.35721123       adf.R=1.725
      4     Cl     1.51797319     0.62890994     1.99443159       adf.R=1.725
      5     Cl    -1.78552798    -1.30982175    -1.74780179       adf.R=1.725
      6     Cl     1.87563163    -0.49052992    -1.45100327       adf.R=1.725
      7      O    -1.37402424    -0.84698071     1.55053882       adf.R=1.517
 
Total System Charge            -2.00000
Bonding info available!
 
 *** GO1_GOStep5 ***

 SOLVATION
-------------------------------------------

  The Delley construction of COSMO surface surface is calculated

       Division Level for Surface Triangles (NDIV)                  3
       Final Division Level for Triangles (NFDIV)                   1
       Radius of the Solvent (RSOL)                           1.93000 angstr
  Dielectric Constant (EPSL)                                 78.39000

       COSMO equation is solved iteratively-               conjugate-gradient

       Maximun of Iterations for Charges (NCIX)                  1000
       Criterion for Charge convergence (CCNV)                1.0E-08

  COSMO charges included variationally in SCF

       COSMO included at every SCF cycle

  Geometry-dependent empirical factor                         0.00000

  C-Matrix calculated in cspmtx

  In cspmtx, C-Matrix calculated using fitted potential

-------------------------------------------



 -------------------------------------------
  COSMO surface
  Area             =          576.303
  Volume           =         1002.480
  Number of Points =         1248
 -------------------------------------------
 
 RIHartreeFock Dependency: number of modified vectors:           5
 cosmo_calcen: 0.5 (esolb+esolc) (Hartrees) =   -0.269233

 Solvation energy (screening term,uncorrected) =   -168.946526 kcal/mol

 Solvation energy (dispersion and cavitation terms) =      1.077643 kcal/mol
 Solvation Energy Contributions (Hartrees)
          esola   esolb+esolc
     0.26923340   -0.53846680
 esol last cycle   -0.26923340
  
 Hartree-Fock exchange energy:   -613.444432074037     
 cosmo_calcen: 0.5 (esolb+esolc) (Hartrees) =   -0.269233

 Solvation energy (screening term,uncorrected) =   -168.946522 kcal/mol

 Solvation energy (dispersion and cavitation terms) =      1.077643 kcal/mol
 Solvation Energy Contributions (Hartrees)
          esola   esolb+esolc
     0.26923339   -0.53846678
 esol last cycle   -0.26923339

 Energy gradients wrt nuclear displacements
 ==========================================

     Atom      Cartesian (a.u./angstrom)
                 X         Y         Z
 ----------------------------------------
     1 Pa    0.012426  0.003398  0.003427
     2 Cl   -0.003259  0.002036  0.000403
     3 Cl   -0.002876 -0.007094 -0.003796
     4 Cl   -0.000251  0.006019 -0.000283
     5 Cl   -0.004418 -0.001194 -0.004887
     6 Cl    0.000010 -0.002431  0.002829
     7 O    -0.001632 -0.000734  0.002307
 ----------------------------------------
 Mulliken charges used for AMS results%charges...

 dE(predicted):    -0.25489E-02, dE(actual):    -0.22437E-02, Trust radius:    0.362849, all in a.u.
 
----------------------------------------------------------------------
Geometry Convergence after Step   5       (Hartree/Angstrom,Angstrom)
----------------------------------------------------------------------
current energy                               -2.12995035 Hartree
energy change                      -0.00224373     0.00000700    F
constrained gradient max            0.01242782     0.00010000    F
constrained gradient rms            0.00419328     0.00006667    F
gradient max                        0.01242782
gradient rms                        0.00419328
cart. step max                      0.11291652     0.00100000    F
cart. step rms                      0.04166366     0.00066667    F
 
 
--------
Geometry
--------
Formula: Cl5OPa
Atoms
  Index Symbol   x (angstrom)   y (angstrom)   z (angstrom)
      1     Pa    -0.10509898    -0.64127932     0.25049531       adf.R=2.200
      2     Cl    -0.97455119     1.82272255    -0.34506544       adf.R=1.725
      3     Cl     0.46122341    -3.24762129     0.44442202       adf.R=1.725
      4     Cl     1.53373005     0.51599342     2.01069424       adf.R=1.725
      5     Cl    -1.79155706    -1.27781148    -1.74191037       adf.R=1.725
      6     Cl     1.84087959    -0.45651343    -1.48420891       adf.R=1.725
      7      O    -1.40733394    -0.84431074     1.52433887       adf.R=1.517
 
Total System Charge            -2.00000
Bonding info available!
 
 *** GO1_GOStep6 ***

 SOLVATION
-------------------------------------------

  The Delley construction of COSMO surface surface is calculated

       Division Level for Surface Triangles (NDIV)                  3
       Final Division Level for Triangles (NFDIV)                   1
       Radius of the Solvent (RSOL)                           1.93000 angstr
  Dielectric Constant (EPSL)                                 78.39000

       COSMO equation is solved iteratively-               conjugate-gradient

       Maximun of Iterations for Charges (NCIX)                  1000
       Criterion for Charge convergence (CCNV)                1.0E-08

  COSMO charges included variationally in SCF

       COSMO included at every SCF cycle

  Geometry-dependent empirical factor                         0.00000

  C-Matrix calculated in cspmtx

  In cspmtx, C-Matrix calculated using fitted potential

-------------------------------------------



 -------------------------------------------
  COSMO surface
  Area             =          577.230
  Volume           =         1003.750
  Number of Points =         1244
 -------------------------------------------
 
 RIHartreeFock Dependency: number of modified vectors:           5
 cosmo_calcen: 0.5 (esolb+esolc) (Hartrees) =   -0.268899

 Solvation energy (screening term,uncorrected) =   -168.736378 kcal/mol

 Solvation energy (dispersion and cavitation terms) =      1.079375 kcal/mol
 Solvation Energy Contributions (Hartrees)
          esola   esolb+esolc
     0.26889851   -0.53779701
 esol last cycle   -0.26889851
  
 Hartree-Fock exchange energy:   -613.454424993221     
 cosmo_calcen: 0.5 (esolb+esolc) (Hartrees) =   -0.268898

 Solvation energy (screening term,uncorrected) =   -168.736374 kcal/mol

 Solvation energy (dispersion and cavitation terms) =      1.079375 kcal/mol
 Solvation Energy Contributions (Hartrees)
          esola   esolb+esolc
     0.26889850   -0.53779700
 esol last cycle   -0.26889850

 Energy gradients wrt nuclear displacements
 ==========================================

     Atom      Cartesian (a.u./angstrom)
                 X         Y         Z
 ----------------------------------------
     1 Pa    0.013269  0.001135 -0.000446
     2 Cl   -0.003078 -0.003187 -0.001212
     3 Cl   -0.003214 -0.001037 -0.002198
     4 Cl   -0.001600  0.003000 -0.002072
     5 Cl   -0.001139  0.003513 -0.000181
     6 Cl   -0.001959 -0.001795  0.003864
     7 O    -0.002279 -0.001629  0.002245
 ----------------------------------------
 Mulliken charges used for AMS results%charges...

 dE(predicted):    -0.10423E-02, dE(actual):    -0.13849E-02, Trust radius:    0.362849, all in a.u.
 
----------------------------------------------------------------------
Geometry Convergence after Step   6       (Hartree/Angstrom,Angstrom)
----------------------------------------------------------------------
current energy                               -2.13133525 Hartree
energy change                      -0.00138491     0.00000700    F
constrained gradient max            0.01327043     0.00010000    F
constrained gradient rms            0.00364693     0.00006667    F
gradient max                        0.01327043
gradient rms                        0.00364693
cart. step max                      0.10297161     0.00100000    F
cart. step rms                      0.03601969     0.00066667    F
 
 
--------
Geometry
--------
Formula: Cl5OPa
Atoms
  Index Symbol   x (angstrom)   y (angstrom)   z (angstrom)
      1     Pa    -0.12677298    -0.63260018     0.23099475       adf.R=2.200
      2     Cl    -0.97327011     1.83517768    -0.34517304       adf.R=1.725
      3     Cl     0.52021165    -3.19149253     0.51917042       adf.R=1.725
      4     Cl     1.54999797     0.41302181     2.01247333       adf.R=1.725
      5     Cl    -1.79342593    -1.27962045    -1.75027930       adf.R=1.725
      6     Cl     1.81806952    -0.44052878    -1.50838384       adf.R=1.725
      7      O    -1.43751825    -0.83277783     1.49996341       adf.R=1.517
 
Total System Charge            -2.00000
Bonding info available!
 
 *** GO1_GOStep7 ***

 SOLVATION
-------------------------------------------

  The Delley construction of COSMO surface surface is calculated

       Division Level for Surface Triangles (NDIV)                  3
       Final Division Level for Triangles (NFDIV)                   1
       Radius of the Solvent (RSOL)                           1.93000 angstr
  Dielectric Constant (EPSL)                                 78.39000

       COSMO equation is solved iteratively-               conjugate-gradient

       Maximun of Iterations for Charges (NCIX)                  1000
       Criterion for Charge convergence (CCNV)                1.0E-08

  COSMO charges included variationally in SCF

       COSMO included at every SCF cycle

  Geometry-dependent empirical factor                         0.00000

  C-Matrix calculated in cspmtx

  In cspmtx, C-Matrix calculated using fitted potential

-------------------------------------------



 -------------------------------------------
  COSMO surface
  Area             =          576.612
  Volume           =         1001.622
  Number of Points =         1243
 -------------------------------------------
 
 RIHartreeFock Dependency: number of modified vectors:           5
 cosmo_calcen: 0.5 (esolb+esolc) (Hartrees) =   -0.268655

 Solvation energy (screening term,uncorrected) =   -168.583545 kcal/mol

 Solvation energy (dispersion and cavitation terms) =      1.078219 kcal/mol
 Solvation Energy Contributions (Hartrees)
          esola   esolb+esolc
     0.26865495   -0.53730990
 esol last cycle   -0.26865495
  
 Hartree-Fock exchange energy:   -613.460711415618     
 cosmo_calcen: 0.5 (esolb+esolc) (Hartrees) =   -0.268655

 Solvation energy (screening term,uncorrected) =   -168.583544 kcal/mol

 Solvation energy (dispersion and cavitation terms) =      1.078219 kcal/mol
 Solvation Energy Contributions (Hartrees)
          esola   esolb+esolc
     0.26865495   -0.53730990
 esol last cycle   -0.26865495

 Energy gradients wrt nuclear displacements
 ==========================================

     Atom      Cartesian (a.u./angstrom)
                 X         Y         Z
 ----------------------------------------
     1 Pa    0.012124 -0.000505 -0.003102
     2 Cl   -0.002684 -0.005512 -0.001146
     3 Cl   -0.003408  0.003752 -0.001456
     4 Cl   -0.002587  0.000720 -0.003588
     5 Cl    0.001226  0.005124  0.002738
     6 Cl   -0.002531 -0.001773  0.004438
     7 O    -0.002141 -0.001806  0.002116
 ----------------------------------------
 Mulliken charges used for AMS results%charges...
 Rebuilding optimization coordinates

 dE(predicted):    -0.57678E-03, dE(actual):    -0.81954E-03, Trust radius:    0.725699, all in a.u.
 Residual max backtransformation error   0.7996E+00

 Delocalized step failed. Taking Cartesian step

 
----------------------------------------------------------------------
Geometry Convergence after Step   7       (Hartree/Angstrom,Angstrom)
----------------------------------------------------------------------
current energy                               -2.13215479 Hartree
energy change                      -0.00081954     0.00000700    F
constrained gradient max            0.01212419     0.00010000    F
constrained gradient rms            0.00390650     0.00006667    F
gradient max                        0.01212419
gradient rms                        0.00390650
cart. step max                      0.21575458     0.00100000    F
cart. step rms                      0.07539977     0.00066667    F
 
 
--------
Geometry
--------
Formula: Cl5OPa
Atoms
  Index Symbol   x (angstrom)   y (angstrom)   z (angstrom)
      1     Pa    -0.17423807    -0.61172809     0.18866597       adf.R=2.200
      2     Cl    -0.96698072     1.88094539    -0.32038517       adf.R=1.725
      3     Cl     0.63826084    -3.06911445     0.66560616       adf.R=1.725
      4     Cl     1.57687788     0.19726722     2.00983221       adf.R=1.725
      5     Cl    -1.79837208    -1.31878482    -1.77682471       adf.R=1.725
      6     Cl     1.77839855    -0.41245003    -1.55821288       adf.R=1.725
      7      O    -1.49665452    -0.79495551     1.45008417       adf.R=1.517
 
Total System Charge            -2.00000
Bonding info available!
 
 *** GO1_GOStep8 ***

 SOLVATION
-------------------------------------------

  The Delley construction of COSMO surface surface is calculated

       Division Level for Surface Triangles (NDIV)                  3
       Final Division Level for Triangles (NFDIV)                   1
       Radius of the Solvent (RSOL)                           1.93000 angstr
  Dielectric Constant (EPSL)                                 78.39000

       COSMO equation is solved iteratively-               conjugate-gradient

       Maximun of Iterations for Charges (NCIX)                  1000
       Criterion for Charge convergence (CCNV)                1.0E-08

  COSMO charges included variationally in SCF

       COSMO included at every SCF cycle

  Geometry-dependent empirical factor                         0.00000

  C-Matrix calculated in cspmtx

  In cspmtx, C-Matrix calculated using fitted potential

-------------------------------------------



 -------------------------------------------
  COSMO surface
  Area             =          573.674
  Volume           =          998.301
  Number of Points =         1241
 -------------------------------------------
 
 RIHartreeFock Dependency: number of modified vectors:           5
 cosmo_calcen: 0.5 (esolb+esolc) (Hartrees) =   -0.268814

 Solvation energy (screening term,uncorrected) =   -168.683244 kcal/mol

 Solvation energy (dispersion and cavitation terms) =      1.072726 kcal/mol
 Solvation Energy Contributions (Hartrees)
          esola   esolb+esolc
     0.26881383   -0.53762766
 esol last cycle   -0.26881383
  
 Hartree-Fock exchange energy:   -613.468277559484     
 cosmo_calcen: 0.5 (esolb+esolc) (Hartrees) =   -0.268814

 Solvation energy (screening term,uncorrected) =   -168.683240 kcal/mol

 Solvation energy (dispersion and cavitation terms) =      1.072726 kcal/mol
 Solvation Energy Contributions (Hartrees)
          esola   esolb+esolc
     0.26881383   -0.53762765
 esol last cycle   -0.26881383

 Energy gradients wrt nuclear displacements
 ==========================================

     Atom      Cartesian (a.u./angstrom)
                 X         Y         Z
 ----------------------------------------
     1 Pa    0.005839 -0.003559 -0.006240
     2 Cl   -0.002341 -0.006534 -0.000149
     3 Cl   -0.002256  0.012333  0.000640
     4 Cl   -0.003490 -0.005346 -0.005560
     5 Cl    0.004324  0.005984  0.006143
     6 Cl   -0.001499 -0.001989  0.003942
     7 O    -0.000577 -0.000889  0.001223
 ----------------------------------------
 Mulliken charges used for AMS results%charges...

 dE(predicted):    -0.51083E-03, dE(actual):    -0.35238E-03, Trust radius:    0.725699, all in a.u.
 
----------------------------------------------------------------------
Geometry Convergence after Step   8       (Hartree/Angstrom,Angstrom)
----------------------------------------------------------------------
current energy                               -2.13250717 Hartree
energy change                      -0.00035238     0.00000700    F
constrained gradient max            0.01233280     0.00010000    F
constrained gradient rms            0.00477983     0.00006667    F
gradient max                        0.01233280
gradient rms                        0.00477983
cart. step max                      0.21095559     0.00100000    F
cart. step rms                      0.07223745     0.00066667    F
 
 
--------
Geometry
--------
Formula: Cl5OPa
Atoms
  Index Symbol   x (angstrom)   y (angstrom)   z (angstrom)
      1     Pa    -0.13286729    -0.63222200     0.22873208       adf.R=2.200
      2     Cl    -0.94094145     1.86268083    -0.33217599       adf.R=1.725
      3     Cl     0.53400270    -3.20315611     0.51671609       adf.R=1.725
      4     Cl     1.54051114     0.40822281     2.03162550       adf.R=1.725
      5     Cl    -1.80342266    -1.32558931    -1.75369740       adf.R=1.725
      6     Cl     1.80580469    -0.42346831    -1.52519943       adf.R=1.725
      7      O    -1.44579526    -0.81528820     1.49276488       adf.R=1.517
 
Total System Charge            -2.00000
Bonding info available!
 
 *** GO1_GOStep9 ***

 SOLVATION
-------------------------------------------

  The Delley construction of COSMO surface surface is calculated

       Division Level for Surface Triangles (NDIV)                  3
       Final Division Level for Triangles (NFDIV)                   1
       Radius of the Solvent (RSOL)                           1.93000 angstr
  Dielectric Constant (EPSL)                                 78.39000

       COSMO equation is solved iteratively-               conjugate-gradient

       Maximun of Iterations for Charges (NCIX)                  1000
       Criterion for Charge convergence (CCNV)                1.0E-08

  COSMO charges included variationally in SCF

       COSMO included at every SCF cycle

  Geometry-dependent empirical factor                         0.00000

  C-Matrix calculated in cspmtx

  In cspmtx, C-Matrix calculated using fitted potential

-------------------------------------------



 -------------------------------------------
  COSMO surface
  Area             =          576.721
  Volume           =         1002.321
  Number of Points =         1240
 -------------------------------------------
 
 RIHartreeFock Dependency: number of modified vectors:           5
 cosmo_calcen: 0.5 (esolb+esolc) (Hartrees) =   -0.267866

 Solvation energy (screening term,uncorrected) =   -168.088756 kcal/mol

 Solvation energy (dispersion and cavitation terms) =      1.078424 kcal/mol
 Solvation Energy Contributions (Hartrees)
          esola   esolb+esolc
     0.26786645   -0.53573291
 esol last cycle   -0.26786645
  
 Hartree-Fock exchange energy:   -613.452290441339     
 cosmo_calcen: 0.5 (esolb+esolc) (Hartrees) =   -0.267866

 Solvation energy (screening term,uncorrected) =   -168.088761 kcal/mol

 Solvation energy (dispersion and cavitation terms) =      1.078424 kcal/mol
 Solvation Energy Contributions (Hartrees)
          esola   esolb+esolc
     0.26786646   -0.53573293
 esol last cycle   -0.26786646

 Energy gradients wrt nuclear displacements
 ==========================================

     Atom      Cartesian (a.u./angstrom)
                 X         Y         Z
 ----------------------------------------
     1 Pa    0.008443 -0.000615  0.000613
     2 Cl   -0.002438 -0.001002 -0.000668
     3 Cl   -0.001926 -0.001108 -0.001443
     4 Cl   -0.000957  0.002393 -0.000830
     5 Cl   -0.001428  0.002026 -0.000800
     6 Cl   -0.000536 -0.001242  0.001895
     7 O    -0.001158 -0.000452  0.001233
 ----------------------------------------
 Mulliken charges used for AMS results%charges...

 dE(predicted):    -0.12595E-02, dE(actual):    -0.23346E-03, Trust radius:    0.725699, all in a.u.
 
----------------------------------------------------------------------
Geometry Convergence after Step   9       (Hartree/Angstrom,Angstrom)
----------------------------------------------------------------------
current energy                               -2.13274063 Hartree
energy change                      -0.00023346     0.00000700    F
constrained gradient max            0.00844379     0.00010000    F
constrained gradient rms            0.00227865     0.00006667    F
gradient max                        0.00844379
gradient rms                        0.00227865
cart. step max                      0.08369617     0.00100000    F
cart. step rms                      0.02869341     0.00066667    F
 
 
--------
Geometry
--------
Formula: Cl5OPa
Atoms
  Index Symbol   x (angstrom)   y (angstrom)   z (angstrom)
      1     Pa    -0.15053920    -0.62502664     0.21371307       adf.R=2.200
      2     Cl    -0.94250605     1.87354098    -0.33058597       adf.R=1.725
      3     Cl     0.57861290    -3.15707775     0.57596746       adf.R=1.725
      4     Cl     1.55428618     0.32452665     2.03053042       adf.R=1.725
      5     Cl    -1.80456746    -1.32929070    -1.76230652       adf.R=1.725
      6     Cl     1.79012055    -0.41122590    -1.54305931       adf.R=1.725
      7      O    -1.46811503    -0.80426693     1.47450658       adf.R=1.517
 
Total System Charge            -2.00000
Bonding info available!
 
 *** GO1_GOStep10 ***

 SOLVATION
-------------------------------------------

  The Delley construction of COSMO surface surface is calculated

       Division Level for Surface Triangles (NDIV)                  3
       Final Division Level for Triangles (NFDIV)                   1
       Radius of the Solvent (RSOL)                           1.93000 angstr
  Dielectric Constant (EPSL)                                 78.39000

       COSMO equation is solved iteratively-               conjugate-gradient

       Maximun of Iterations for Charges (NCIX)                  1000
       Criterion for Charge convergence (CCNV)                1.0E-08

  COSMO charges included variationally in SCF

       COSMO included at every SCF cycle

  Geometry-dependent empirical factor                         0.00000

  C-Matrix calculated in cspmtx

  In cspmtx, C-Matrix calculated using fitted potential

-------------------------------------------



 -------------------------------------------
  COSMO surface
  Area             =          573.521
  Volume           =          996.374
  Number of Points =         1233
 -------------------------------------------
 
 RIHartreeFock Dependency: number of modified vectors:           5
 cosmo_calcen: 0.5 (esolb+esolc) (Hartrees) =   -0.267827

 Solvation energy (screening term,uncorrected) =   -168.063694 kcal/mol

 Solvation energy (dispersion and cavitation terms) =      1.072439 kcal/mol
 Solvation Energy Contributions (Hartrees)
          esola   esolb+esolc
     0.26782652   -0.53565303
 esol last cycle   -0.26782652
  
 Hartree-Fock exchange energy:   -613.456608303833     
 cosmo_calcen: 0.5 (esolb+esolc) (Hartrees) =   -0.267827

 Solvation energy (screening term,uncorrected) =   -168.063695 kcal/mol

 Solvation energy (dispersion and cavitation terms) =      1.072439 kcal/mol
 Solvation Energy Contributions (Hartrees)
          esola   esolb+esolc
     0.26782652   -0.53565304
 esol last cycle   -0.26782652

 Energy gradients wrt nuclear displacements
 ==========================================

     Atom      Cartesian (a.u./angstrom)
                 X         Y         Z
 ----------------------------------------
     1 Pa    0.006181 -0.001678 -0.000566
     2 Cl   -0.002392 -0.002334 -0.000722
     3 Cl   -0.001776  0.002292 -0.000599
     4 Cl   -0.001293  0.000231 -0.001726
     5 Cl    0.000138  0.003130  0.001049
     6 Cl   -0.000507 -0.001212  0.001999
     7 O    -0.000351 -0.000429  0.000565
 ----------------------------------------
 Mulliken charges used for AMS results%charges...

 dE(predicted):    -0.32451E-03, dE(actual):    -0.42029E-03, Trust radius:    0.725699, all in a.u.
 
----------------------------------------------------------------------
Geometry Convergence after Step  10       (Hartree/Angstrom,Angstrom)
----------------------------------------------------------------------
current energy                               -2.13316092 Hartree
energy change                      -0.00042029     0.00000700    F
constrained gradient max            0.00618197     0.00010000    F
constrained gradient rms            0.00199718     0.00006667    F
gradient max                        0.00618197
gradient rms                        0.00199718
cart. step max                      0.05197767     0.00100000    F
cart. step rms                      0.01831896     0.00066667    F
 
 
--------
Geometry
--------
Formula: Cl5OPa
Atoms
  Index Symbol   x (angstrom)   y (angstrom)   z (angstrom)
      1     Pa    -0.16250778    -0.62054241     0.20451170       adf.R=2.200
      2     Cl    -0.93658399     1.88503138    -0.32746598       adf.R=1.725
      3     Cl     0.60776693    -3.12991266     0.61142935       adf.R=1.725
      4     Cl     1.56047243     0.27254898     2.03210963       adf.R=1.725
      5     Cl    -1.80699970    -1.33995208    -1.76776957       adf.R=1.725
      6     Cl     1.77846726    -0.40055701    -1.55657196       adf.R=1.725
      7      O    -1.48332328    -0.79543649     1.46252254       adf.R=1.517
 
Total System Charge            -2.00000
Bonding info available!
 
 *** GO1_GOStep11 ***

 SOLVATION
-------------------------------------------

  The Delley construction of COSMO surface surface is calculated

       Division Level for Surface Triangles (NDIV)                  3
       Final Division Level for Triangles (NFDIV)                   1
       Radius of the Solvent (RSOL)                           1.93000 angstr
  Dielectric Constant (EPSL)                                 78.39000

       COSMO equation is solved iteratively-               conjugate-gradient

       Maximun of Iterations for Charges (NCIX)                  1000
       Criterion for Charge convergence (CCNV)                1.0E-08

  COSMO charges included variationally in SCF

       COSMO included at every SCF cycle

  Geometry-dependent empirical factor                         0.00000

  C-Matrix calculated in cspmtx

  In cspmtx, C-Matrix calculated using fitted potential

-------------------------------------------



 -------------------------------------------
  COSMO surface
  Area             =          573.755
  Volume           =          997.387
  Number of Points =         1236
 -------------------------------------------
 
 RIHartreeFock Dependency: number of modified vectors:           5
 cosmo_calcen: 0.5 (esolb+esolc) (Hartrees) =   -0.267814

 Solvation energy (screening term,uncorrected) =   -168.055680 kcal/mol

 Solvation energy (dispersion and cavitation terms) =      1.072878 kcal/mol
 Solvation Energy Contributions (Hartrees)
          esola   esolb+esolc
     0.26781375   -0.53562749
 esol last cycle   -0.26781375
  
 Hartree-Fock exchange energy:   -613.457491061545     
 cosmo_calcen: 0.5 (esolb+esolc) (Hartrees) =   -0.267814

 Solvation energy (screening term,uncorrected) =   -168.055684 kcal/mol

 Solvation energy (dispersion and cavitation terms) =      1.072878 kcal/mol
 Solvation Energy Contributions (Hartrees)
          esola   esolb+esolc
     0.26781375   -0.53562750
 esol last cycle   -0.26781375

 Energy gradients wrt nuclear displacements
 ==========================================

     Atom      Cartesian (a.u./angstrom)
                 X         Y         Z
 ----------------------------------------
     1 Pa    0.003936 -0.002236 -0.000995
     2 Cl   -0.002249 -0.002377 -0.000699
     3 Cl   -0.001235  0.003618  0.000136
     4 Cl   -0.001186 -0.001073 -0.001872
     5 Cl    0.000710  0.003360  0.001634
     6 Cl   -0.000053 -0.001041  0.001531
     7 O     0.000079 -0.000252  0.000265
 ----------------------------------------
 Mulliken charges used for AMS results%charges...

 dE(predicted):    -0.11782E-03, dE(actual):    -0.17915E-03, Trust radius:    0.725699, all in a.u.
 
----------------------------------------------------------------------
Geometry Convergence after Step  11       (Hartree/Angstrom,Angstrom)
----------------------------------------------------------------------
current energy                               -2.13334007 Hartree
energy change                      -0.00017915     0.00000700    F
constrained gradient max            0.00393613     0.00010000    F
constrained gradient rms            0.00184400     0.00006667    F
gradient max                        0.00393613
gradient rms                        0.00184400
cart. step max                      0.01701484     0.00100000    F
cart. step rms                      0.00711250     0.00066667    F
 
 
--------
Geometry
--------
Formula: Cl5OPa
Atoms
  Index Symbol   x (angstrom)   y (angstrom)   z (angstrom)
      1     Pa    -0.16735004    -0.61906491     0.20175536       adf.R=2.200
      2     Cl    -0.92923656     1.89244041    -0.32622069       adf.R=1.725
      3     Cl     0.61877012    -3.12430809     0.62262625       adf.R=1.725
      4     Cl     1.56174249     0.25553414     2.03615938       adf.R=1.725
      5     Cl    -1.80988160    -1.34975995    -1.76940804       adf.R=1.725
      6     Cl     1.77288023    -0.39296192    -1.56357280       adf.R=1.725
      7      O    -1.48963278    -0.79069997     1.45742627       adf.R=1.517
 
Total System Charge            -2.00000
Bonding info available!
 
 *** GO1_GOStep12 ***

 SOLVATION
-------------------------------------------

  The Delley construction of COSMO surface surface is calculated

       Division Level for Surface Triangles (NDIV)                  3
       Final Division Level for Triangles (NFDIV)                   1
       Radius of the Solvent (RSOL)                           1.93000 angstr
  Dielectric Constant (EPSL)                                 78.39000

       COSMO equation is solved iteratively-               conjugate-gradient

       Maximun of Iterations for Charges (NCIX)                  1000
       Criterion for Charge convergence (CCNV)                1.0E-08

  COSMO charges included variationally in SCF

       COSMO included at every SCF cycle

  Geometry-dependent empirical factor                         0.00000

  C-Matrix calculated in cspmtx

  In cspmtx, C-Matrix calculated using fitted potential

-------------------------------------------



 -------------------------------------------
  COSMO surface
  Area             =          574.271
  Volume           =          998.689
  Number of Points =         1240
 -------------------------------------------
 
 RIHartreeFock Dependency: number of modified vectors:           5
 cosmo_calcen: 0.5 (esolb+esolc) (Hartrees) =   -0.267665

 Solvation energy (screening term,uncorrected) =   -167.962220 kcal/mol

 Solvation energy (dispersion and cavitation terms) =      1.073841 kcal/mol
 Solvation Energy Contributions (Hartrees)
          esola   esolb+esolc
     0.26766481   -0.53532961
 esol last cycle   -0.26766481
  
 Hartree-Fock exchange energy:   -613.456074778595     
 cosmo_calcen: 0.5 (esolb+esolc) (Hartrees) =   -0.267665

 Solvation energy (screening term,uncorrected) =   -167.962229 kcal/mol

 Solvation energy (dispersion and cavitation terms) =      1.073841 kcal/mol
 Solvation Energy Contributions (Hartrees)
          esola   esolb+esolc
     0.26766482   -0.53532964
 esol last cycle   -0.26766482

 Energy gradients wrt nuclear displacements
 ==========================================

     Atom      Cartesian (a.u./angstrom)
                 X         Y         Z
 ----------------------------------------
     1 Pa    0.002192 -0.002239 -0.000332
     2 Cl   -0.002198 -0.001675 -0.000773
     3 Cl   -0.000698  0.003003  0.000496
     4 Cl   -0.000669 -0.001212 -0.001322
     5 Cl    0.000378  0.003010  0.001210
     6 Cl    0.000536 -0.000802  0.000855
     7 O     0.000459 -0.000085 -0.000133
 ----------------------------------------
 Mulliken charges used for AMS results%charges...

 dE(predicted):    -0.48449E-04, dE(actual):    -0.10406E-03, Trust radius:    0.725699, all in a.u.
 
----------------------------------------------------------------------
Geometry Convergence after Step  12       (Hartree/Angstrom,Angstrom)
----------------------------------------------------------------------
current energy                               -2.13344413 Hartree
energy change                      -0.00010406     0.00000700    F
constrained gradient max            0.00301461     0.00010000    F
constrained gradient rms            0.00144967     0.00006667    F
gradient max                        0.00301461
gradient rms                        0.00144967
cart. step max                      0.02272683     0.00100000    F
cart. step rms                      0.01101767     0.00066667    F
 
 
--------
Geometry
--------
Formula: Cl5OPa
Atoms
  Index Symbol   x (angstrom)   y (angstrom)   z (angstrom)
      1     Pa    -0.17433585    -0.61706923     0.19907068       adf.R=2.200
      2     Cl    -0.91154704     1.90733294    -0.32342938       adf.R=1.725
      3     Cl     0.63192623    -3.12563332     0.63374170       adf.R=1.725
      4     Cl     1.56228816     0.23886784     2.04689794       adf.R=1.725
      5     Cl    -1.81596621    -1.37248678    -1.77102389       adf.R=1.725
      6     Cl     1.76372234    -0.37724403    -1.57610359       adf.R=1.725
      7      O    -1.49879574    -0.78258771     1.44961227       adf.R=1.517
 
Total System Charge            -2.00000
Bonding info available!
 
 *** GO1_GOStep13 ***

 SOLVATION
-------------------------------------------

  The Delley construction of COSMO surface surface is calculated

       Division Level for Surface Triangles (NDIV)                  3
       Final Division Level for Triangles (NFDIV)                   1
       Radius of the Solvent (RSOL)                           1.93000 angstr
  Dielectric Constant (EPSL)                                 78.39000

       COSMO equation is solved iteratively-               conjugate-gradient

       Maximun of Iterations for Charges (NCIX)                  1000
       Criterion for Charge convergence (CCNV)                1.0E-08

  COSMO charges included variationally in SCF

       COSMO included at every SCF cycle

  Geometry-dependent empirical factor                         0.00000

  C-Matrix calculated in cspmtx

  In cspmtx, C-Matrix calculated using fitted potential

-------------------------------------------



 -------------------------------------------
  COSMO surface
  Area             =          574.552
  Volume           =          999.214
  Number of Points =         1241
 -------------------------------------------
 
 RIHartreeFock Dependency: number of modified vectors:           5
 cosmo_calcen: 0.5 (esolb+esolc) (Hartrees) =   -0.267178

 Solvation energy (screening term,uncorrected) =   -167.656654 kcal/mol

 Solvation energy (dispersion and cavitation terms) =      1.074367 kcal/mol
 Solvation Energy Contributions (Hartrees)
          esola   esolb+esolc
     0.26717786   -0.53435571
 esol last cycle   -0.26717786
  
 Hartree-Fock exchange energy:   -613.451265517746     
 cosmo_calcen: 0.5 (esolb+esolc) (Hartrees) =   -0.267178

 Solvation energy (screening term,uncorrected) =   -167.656657 kcal/mol

 Solvation energy (dispersion and cavitation terms) =      1.074367 kcal/mol
 Solvation Energy Contributions (Hartrees)
          esola   esolb+esolc
     0.26717786   -0.53435572
 esol last cycle   -0.26717786

 Energy gradients wrt nuclear displacements
 ==========================================

     Atom      Cartesian (a.u./angstrom)
                 X         Y         Z
 ----------------------------------------
     1 Pa   -0.001875 -0.001751  0.001737
     2 Cl   -0.002069  0.000397 -0.000936
     3 Cl    0.000517  0.000106  0.001159
     4 Cl    0.000876 -0.000696  0.000446
     5 Cl   -0.000853  0.001863 -0.000331
     6 Cl    0.002030 -0.000167 -0.000913
     7 O     0.001374  0.000248 -0.001161
 ----------------------------------------
 Mulliken charges used for AMS results%charges...

 dE(predicted):    -0.96112E-04, dE(actual):    -0.13132E-03, Trust radius:    0.725699, all in a.u.
 
----------------------------------------------------------------------
Geometry Convergence after Step  13       (Hartree/Angstrom,Angstrom)
----------------------------------------------------------------------
current energy                               -2.13357545 Hartree
energy change                      -0.00013132     0.00000700    F
constrained gradient max            0.00209487     0.00010000    F
constrained gradient rms            0.00120653     0.00006667    F
gradient max                        0.00209487
gradient rms                        0.00120653
cart. step max                      0.00722275     0.00100000    F
cart. step rms                      0.00303292     0.00066667    F
 
 
--------
Geometry
--------
Formula: Cl5OPa
Atoms
  Index Symbol   x (angstrom)   y (angstrom)   z (angstrom)
      1     Pa    -0.17474523    -0.61637879     0.19957720       adf.R=2.200
      2     Cl    -0.90567826     1.91086388    -0.32191537       adf.R=1.725
      3     Cl     0.63036013    -3.13053201     0.62966357       adf.R=1.725
      4     Cl     1.56111754     0.24372997     2.04991779       adf.R=1.725
      5     Cl    -1.81642023    -1.37970953    -1.76989589       adf.R=1.725
      6     Cl     1.76234064    -0.37473806    -1.57776768       adf.R=1.725
      7      O    -1.49968271    -0.78205575     1.44918611       adf.R=1.517
 
Total System Charge            -2.00000
Bonding info available!
 
 *** GO1_GOStep14 ***

 SOLVATION
-------------------------------------------

  The Delley construction of COSMO surface surface is calculated

       Division Level for Surface Triangles (NDIV)                  3
       Final Division Level for Triangles (NFDIV)                   1
       Radius of the Solvent (RSOL)                           1.93000 angstr
  Dielectric Constant (EPSL)                                 78.39000

       COSMO equation is solved iteratively-               conjugate-gradient

       Maximun of Iterations for Charges (NCIX)                  1000
       Criterion for Charge convergence (CCNV)                1.0E-08

  COSMO charges included variationally in SCF

       COSMO included at every SCF cycle

  Geometry-dependent empirical factor                         0.00000

  C-Matrix calculated in cspmtx

  In cspmtx, C-Matrix calculated using fitted potential

-------------------------------------------



 -------------------------------------------
  COSMO surface
  Area             =          574.657
  Volume           =          999.328
  Number of Points =         1241
 -------------------------------------------
 
 RIHartreeFock Dependency: number of modified vectors:           5
 cosmo_calcen: 0.5 (esolb+esolc) (Hartrees) =   -0.267046

 Solvation energy (screening term,uncorrected) =   -167.573730 kcal/mol

 Solvation energy (dispersion and cavitation terms) =      1.074563 kcal/mol
 Solvation Energy Contributions (Hartrees)
          esola   esolb+esolc
     0.26704571   -0.53409142
 esol last cycle   -0.26704571
  
 Hartree-Fock exchange energy:   -613.449523365283     
 cosmo_calcen: 0.5 (esolb+esolc) (Hartrees) =   -0.267046

 Solvation energy (screening term,uncorrected) =   -167.573738 kcal/mol

 Solvation energy (dispersion and cavitation terms) =      1.074563 kcal/mol
 Solvation Energy Contributions (Hartrees)
          esola   esolb+esolc
     0.26704572   -0.53409144
 esol last cycle   -0.26704572

 Energy gradients wrt nuclear displacements
 ==========================================

     Atom      Cartesian (a.u./angstrom)
                 X         Y         Z
 ----------------------------------------
     1 Pa   -0.002355 -0.001255  0.001874
     2 Cl   -0.001957  0.000946 -0.000926
     3 Cl    0.000730 -0.001025  0.001161
     4 Cl    0.001305 -0.000239  0.001001
     5 Cl   -0.001216  0.001414 -0.000766
     6 Cl    0.002327 -0.000049 -0.001307
     7 O     0.001166  0.000207 -0.001036
 ----------------------------------------
 Mulliken charges used for AMS results%charges...

 dE(predicted):    -0.18261E-04, dE(actual):    -0.29842E-04, Trust radius:    0.725699, all in a.u.
 
----------------------------------------------------------------------
Geometry Convergence after Step  14       (Hartree/Angstrom,Angstrom)
----------------------------------------------------------------------
current energy                               -2.13360530 Hartree
energy change                      -0.00002984     0.00000700    F
constrained gradient max            0.00235480     0.00010000    F
constrained gradient rms            0.00130145     0.00006667    F
gradient max                        0.00235480
gradient rms                        0.00130145
cart. step max                      0.01039518     0.00100000    F
cart. step rms                      0.00477463     0.00066667    F
 
 
--------
Geometry
--------
Formula: Cl5OPa
Atoms
  Index Symbol   x (angstrom)   y (angstrom)   z (angstrom)
      1     Pa    -0.17525073    -0.61465257     0.20033655       adf.R=2.200
      2     Cl    -0.89730474     1.91516174    -0.31890201       adf.R=1.725
      3     Cl     0.62591358    -3.13791789     0.62180728       adf.R=1.725
      4     Cl     1.55933208     0.25326785     2.05371500       adf.R=1.725
      5     Cl    -1.81521060    -1.39010470    -1.76704863       adf.R=1.725
      6     Cl     1.76050903    -0.37228141    -1.57983983       adf.R=1.725
      7      O    -1.50069674    -0.78229332     1.44869736       adf.R=1.517
 
Total System Charge            -2.00000
Bonding info available!
 
 *** GO1_GOStep15 ***

 SOLVATION
-------------------------------------------

  The Delley construction of COSMO surface surface is calculated

       Division Level for Surface Triangles (NDIV)                  3
       Final Division Level for Triangles (NFDIV)                   1
       Radius of the Solvent (RSOL)                           1.93000 angstr
  Dielectric Constant (EPSL)                                 78.39000

       COSMO equation is solved iteratively-               conjugate-gradient

       Maximun of Iterations for Charges (NCIX)                  1000
       Criterion for Charge convergence (CCNV)                1.0E-08

  COSMO charges included variationally in SCF

       COSMO included at every SCF cycle

  Geometry-dependent empirical factor                         0.00000

  C-Matrix calculated in cspmtx

  In cspmtx, C-Matrix calculated using fitted potential

-------------------------------------------



 -------------------------------------------
  COSMO surface
  Area             =          575.286
  Volume           =         1000.203
  Number of Points =         1243
 -------------------------------------------
 
 RIHartreeFock Dependency: number of modified vectors:           5
 cosmo_calcen: 0.5 (esolb+esolc) (Hartrees) =   -0.266903

 Solvation energy (screening term,uncorrected) =   -167.484161 kcal/mol

 Solvation energy (dispersion and cavitation terms) =      1.075741 kcal/mol
 Solvation Energy Contributions (Hartrees)
          esola   esolb+esolc
     0.26690297   -0.53380594
 esol last cycle   -0.26690297
  
 Hartree-Fock exchange energy:   -613.447600595520     
 cosmo_calcen: 0.5 (esolb+esolc) (Hartrees) =   -0.266903

 Solvation energy (screening term,uncorrected) =   -167.484167 kcal/mol

 Solvation energy (dispersion and cavitation terms) =      1.075741 kcal/mol
 Solvation Energy Contributions (Hartrees)
          esola   esolb+esolc
     0.26690298   -0.53380596
 esol last cycle   -0.26690298

 Energy gradients wrt nuclear displacements
 ==========================================

     Atom      Cartesian (a.u./angstrom)
                 X         Y         Z
 ----------------------------------------
     1 Pa   -0.003224 -0.000230  0.001774
     2 Cl   -0.001678  0.001369 -0.000826
     3 Cl    0.000920 -0.002550  0.001082
     4 Cl    0.001859  0.000449  0.001717
     5 Cl   -0.001446  0.000847 -0.001048
     6 Cl    0.002641  0.000050 -0.001756
     7 O     0.000927  0.000066 -0.000943
 ----------------------------------------
 Mulliken charges used for AMS results%charges...

 dE(predicted):    -0.20433E-04, dE(actual):    -0.31733E-04, Trust radius:    0.725699, all in a.u.
 
----------------------------------------------------------------------
Geometry Convergence after Step  15       (Hartree/Angstrom,Angstrom)
----------------------------------------------------------------------
current energy                               -2.13363703 Hartree
energy change                      -0.00003173     0.00000700    F
constrained gradient max            0.00322323     0.00010000    F
constrained gradient rms            0.00154003     0.00006667    F
gradient max                        0.00322323
gradient rms                        0.00154003
cart. step max                      0.00383965     0.00100000    F
cart. step rms                      0.00181665     0.00066667    F
 
 
--------
Geometry
--------
Formula: Cl5OPa
Atoms
  Index Symbol   x (angstrom)   y (angstrom)   z (angstrom)
      1     Pa    -0.17584044    -0.61346350     0.20026757       adf.R=2.200
      2     Cl    -0.89399155     1.91601165    -0.31736433       adf.R=1.725
      3     Cl     0.62379493    -3.13969517     0.61888432       adf.R=1.725
      4     Cl     1.55868012     0.25637097     2.05470387       adf.R=1.725
      5     Cl    -1.81322810    -1.39394435    -1.76513726       adf.R=1.725
      6     Cl     1.75929959    -0.37153307    -1.58091929       adf.R=1.725
      7      O    -1.50142268    -0.78256682     1.44833086       adf.R=1.517
 
Total System Charge            -2.00000
Bonding info available!
 
 *** GO1_GOStep16 ***

 SOLVATION
-------------------------------------------

  The Delley construction of COSMO surface surface is calculated

       Division Level for Surface Triangles (NDIV)                  3
       Final Division Level for Triangles (NFDIV)                   1
       Radius of the Solvent (RSOL)                           1.93000 angstr
  Dielectric Constant (EPSL)                                 78.39000

       COSMO equation is solved iteratively-               conjugate-gradient

       Maximun of Iterations for Charges (NCIX)                  1000
       Criterion for Charge convergence (CCNV)                1.0E-08

  COSMO charges included variationally in SCF

       COSMO included at every SCF cycle

  Geometry-dependent empirical factor                         0.00000

  C-Matrix calculated in cspmtx

  In cspmtx, C-Matrix calculated using fitted potential

-------------------------------------------



 -------------------------------------------
  COSMO surface
  Area             =          575.897
  Volume           =         1000.925
  Number of Points =         1245
 -------------------------------------------
 
 RIHartreeFock Dependency: number of modified vectors:           5
 cosmo_calcen: 0.5 (esolb+esolc) (Hartrees) =   -0.266898

 Solvation energy (screening term,uncorrected) =   -167.481022 kcal/mol

 Solvation energy (dispersion and cavitation terms) =      1.076883 kcal/mol
 Solvation Energy Contributions (Hartrees)
          esola   esolb+esolc
     0.26689797   -0.53379594
 esol last cycle   -0.26689797
  
 Hartree-Fock exchange energy:   -613.447530511363     
 cosmo_calcen: 0.5 (esolb+esolc) (Hartrees) =   -0.266898

 Solvation energy (screening term,uncorrected) =   -167.481027 kcal/mol

 Solvation energy (dispersion and cavitation terms) =      1.076883 kcal/mol
 Solvation Energy Contributions (Hartrees)
          esola   esolb+esolc
     0.26689798   -0.53379595
 esol last cycle   -0.26689798

 Energy gradients wrt nuclear displacements
 ==========================================

     Atom      Cartesian (a.u./angstrom)
                 X         Y         Z
 ----------------------------------------
     1 Pa   -0.003675  0.000311  0.001377
     2 Cl   -0.001475  0.001170 -0.000710
     3 Cl    0.000889 -0.002918  0.001025
     4 Cl    0.001980  0.000646  0.001882
     5 Cl   -0.001223  0.000758 -0.000801
     6 Cl    0.002631  0.000054 -0.001826
     7 O     0.000872 -0.000022 -0.000947
 ----------------------------------------
 Mulliken charges used for AMS results%charges...

 dE(predicted):    -0.62859E-05, dE(actual):    -0.13639E-04, Trust radius:    0.725699, all in a.u.
 
----------------------------------------------------------------------
Geometry Convergence after Step  16       (Hartree/Angstrom,Angstrom)
----------------------------------------------------------------------
current energy                               -2.13365067 Hartree
energy change                      -0.00001364     0.00000700    F
constrained gradient max            0.00367493     0.00010000    F
constrained gradient rms            0.00157975     0.00006667    F
gradient max                        0.00367493
gradient rms                        0.00157975
cart. step max                      0.00615218     0.00100000    F
cart. step rms                      0.00295386     0.00066667    F
 
 
--------
Geometry
--------
Formula: Cl5OPa
Atoms
  Index Symbol   x (angstrom)   y (angstrom)   z (angstrom)
      1     Pa    -0.17811559    -0.61089772     0.19934400       adf.R=2.200
      2     Cl    -0.88783937     1.91615341    -0.31494189       adf.R=1.725
      3     Cl     0.62160140    -3.13990445     0.61506697       adf.R=1.725
      4     Cl     1.55749126     0.25833920     2.05563311       adf.R=1.725
      5     Cl    -1.80830612    -1.40001908    -1.76090668       adf.R=1.725
      6     Cl     1.75613813    -0.37003511    -1.58301195       adf.R=1.725
      7      O    -1.50367784    -0.78245654     1.44758217       adf.R=1.517
 
Total System Charge            -2.00000
Bonding info available!
 
 *** GO1_GOStep17 ***

 SOLVATION
-------------------------------------------

  The Delley construction of COSMO surface surface is calculated

       Division Level for Surface Triangles (NDIV)                  3
       Final Division Level for Triangles (NFDIV)                   1
       Radius of the Solvent (RSOL)                           1.93000 angstr
  Dielectric Constant (EPSL)                                 78.39000

       COSMO equation is solved iteratively-               conjugate-gradient

       Maximun of Iterations for Charges (NCIX)                  1000
       Criterion for Charge convergence (CCNV)                1.0E-08

  COSMO charges included variationally in SCF

       COSMO included at every SCF cycle

  Geometry-dependent empirical factor                         0.00000

  C-Matrix calculated in cspmtx

  In cspmtx, C-Matrix calculated using fitted potential

-------------------------------------------



 -------------------------------------------
  COSMO surface
  Area             =          575.905
  Volume           =         1000.993
  Number of Points =         1244
 -------------------------------------------
 
 RIHartreeFock Dependency: number of modified vectors:           5
 cosmo_calcen: 0.5 (esolb+esolc) (Hartrees) =   -0.266971

 Solvation energy (screening term,uncorrected) =   -167.526784 kcal/mol

 Solvation energy (dispersion and cavitation terms) =      1.076899 kcal/mol
 Solvation Energy Contributions (Hartrees)
          esola   esolb+esolc
     0.26697090   -0.53394179
 esol last cycle   -0.26697090
  
 Hartree-Fock exchange energy:   -613.448531988592     
 cosmo_calcen: 0.5 (esolb+esolc) (Hartrees) =   -0.266971

 Solvation energy (screening term,uncorrected) =   -167.526786 kcal/mol

 Solvation energy (dispersion and cavitation terms) =      1.076899 kcal/mol
 Solvation Energy Contributions (Hartrees)
          esola   esolb+esolc
     0.26697090   -0.53394180
 esol last cycle   -0.26697090

 Energy gradients wrt nuclear displacements
 ==========================================

     Atom      Cartesian (a.u./angstrom)
                 X         Y         Z
 ----------------------------------------
     1 Pa   -0.004812  0.001404  0.000116
     2 Cl   -0.000964  0.000222 -0.000417
     3 Cl    0.000838 -0.003126  0.000907
     4 Cl    0.002025  0.000780  0.001954
     5 Cl   -0.000357  0.000859  0.000173
     6 Cl    0.002416  0.000023 -0.001752
     7 O     0.000855 -0.000163 -0.000981
 ----------------------------------------
 Mulliken charges used for AMS results%charges...

 dE(predicted):    -0.13503E-04, dE(actual):    -0.26323E-04, Trust radius:    0.725699, all in a.u.
 
----------------------------------------------------------------------
Geometry Convergence after Step  17       (Hartree/Angstrom,Angstrom)
----------------------------------------------------------------------
current energy                               -2.13367699 Hartree
energy change                      -0.00002632     0.00000700    F
constrained gradient max            0.00481201     0.00010000    F
constrained gradient rms            0.00165666     0.00006667    F
gradient max                        0.00481201
gradient rms                        0.00165666
cart. step max                      0.00221797     0.00100000    F
cart. step rms                      0.00101659     0.00066667    F
 
 
--------
Geometry
--------
Formula: Cl5OPa
Atoms
  Index Symbol   x (angstrom)   y (angstrom)   z (angstrom)
      1     Pa    -0.17928951    -0.61030941     0.19866431       adf.R=2.200
      2     Cl    -0.88664750     1.91470947    -0.31473430       adf.R=1.725
      3     Cl     0.62165940    -3.13827908     0.61476361       adf.R=1.725
      4     Cl     1.55715773     0.25675087     2.05495898       adf.R=1.725
      5     Cl    -1.80608815    -1.40063078    -1.75961534       adf.R=1.725
      6     Cl     1.75493235    -0.36942314    -1.58315727       adf.R=1.725
      7      O    -1.50443246    -0.78163823     1.44788573       adf.R=1.517
 
Total System Charge            -2.00000
Bonding info available!
 
 *** GO1_GOStep18 ***

 SOLVATION
-------------------------------------------

  The Delley construction of COSMO surface surface is calculated

       Division Level for Surface Triangles (NDIV)                  3
       Final Division Level for Triangles (NFDIV)                   1
       Radius of the Solvent (RSOL)                           1.93000 angstr
  Dielectric Constant (EPSL)                                 78.39000

       COSMO equation is solved iteratively-               conjugate-gradient

       Maximun of Iterations for Charges (NCIX)                  1000
       Criterion for Charge convergence (CCNV)                1.0E-08

  COSMO charges included variationally in SCF

       COSMO included at every SCF cycle

  Geometry-dependent empirical factor                         0.00000

  C-Matrix calculated in cspmtx

  In cspmtx, C-Matrix calculated using fitted potential

-------------------------------------------



 -------------------------------------------
  COSMO surface
  Area             =          575.335
  Volume           =         1000.205
  Number of Points =         1242
 -------------------------------------------
 
 RIHartreeFock Dependency: number of modified vectors:           5
 cosmo_calcen: 0.5 (esolb+esolc) (Hartrees) =   -0.267049

 Solvation energy (screening term,uncorrected) =   -167.575604 kcal/mol

 Solvation energy (dispersion and cavitation terms) =      1.075832 kcal/mol
 Solvation Energy Contributions (Hartrees)
          esola   esolb+esolc
     0.26704870   -0.53409739
 esol last cycle   -0.26704870
  
 Hartree-Fock exchange energy:   -613.449579752486     
 cosmo_calcen: 0.5 (esolb+esolc) (Hartrees) =   -0.267049

 Solvation energy (screening term,uncorrected) =   -167.575609 kcal/mol

 Solvation energy (dispersion and cavitation terms) =      1.075832 kcal/mol
 Solvation Energy Contributions (Hartrees)
          esola   esolb+esolc
     0.26704870   -0.53409741
 esol last cycle   -0.26704870

 Energy gradients wrt nuclear displacements
 ==========================================

     Atom      Cartesian (a.u./angstrom)
                 X         Y         Z
 ----------------------------------------
     1 Pa   -0.005107  0.001640 -0.000635
     2 Cl   -0.000759 -0.000416 -0.000272
     3 Cl    0.000774 -0.002823  0.000854
     4 Cl    0.001874  0.000670  0.001784
     5 Cl    0.000172  0.001072  0.000746
     6 Cl    0.002194 -0.000000 -0.001556
     7 O     0.000852 -0.000144 -0.000920
 ----------------------------------------
 Mulliken charges used for AMS results%charges...

[...]
 
 Mode:    14      Frequency (cm-1):      179.2858     Intensity (km/mol):       76.3437
 Index  Atom      ---- Displacements (x/y/z) ----
     1    Pa      -0.048555  -0.002410  -0.052436
     2    Cl       0.052370   0.009060  -0.006789
     3    Cl      -0.014434   0.007930   0.050676
     4    Cl      -0.111901  -0.019336   0.098797
     5    Cl       0.101983   0.003323  -0.113995
     6    Cl      -0.009544  -0.001195  -0.007245
     7     O       0.660964   0.035289   0.710528
 
 Mode:    15      Frequency (cm-1):      181.4760     Intensity (km/mol):       68.5571
 Index  Atom      ---- Displacements (x/y/z) ----
     1    Pa       0.004219  -0.069941  -0.001834
     2    Cl      -0.089805  -0.031089   0.107602
     3    Cl       0.123765  -0.007437  -0.092424
     4    Cl      -0.036496   0.027687   0.017854
     5    Cl       0.021779   0.032669  -0.042899
     6    Cl      -0.006437  -0.002189   0.007093
     7     O      -0.088939   0.967314   0.032550
 
 Mode:    16      Frequency (cm-1):      219.0082     Intensity (km/mol):       16.1377
 Index  Atom      ---- Displacements (x/y/z) ----
     1    Pa      -0.023724   0.030488   0.003430
     2    Cl       0.163838  -0.640459   0.139154
     3    Cl      -0.130771   0.401189  -0.063460
     4    Cl       0.273479   0.141255   0.292122
     5    Cl      -0.242579  -0.119193  -0.286170
     6    Cl       0.111147   0.010054  -0.103784
     7     O      -0.040166   0.012512  -0.001151
 
 Mode:    17      Frequency (cm-1):      221.4758     Intensity (km/mol):       78.1044
 Index  Atom      ---- Displacements (x/y/z) ----
     1    Pa      -0.064259   0.007702   0.061005
     2    Cl       0.058883  -0.244840   0.059986
     3    Cl      -0.047422   0.141506  -0.019838
     4    Cl      -0.307632  -0.146501  -0.318496
     5    Cl       0.248086   0.127957   0.306270
     6    Cl       0.514449   0.064658  -0.475638
     7     O      -0.091406   0.013842   0.097640
 
 Mode:    18      Frequency (cm-1):      228.0590     Intensity (km/mol):      320.3918
 Index  Atom      ---- Displacements (x/y/z) ----
     1    Pa      -0.025966  -0.190883  -0.030565
     2    Cl      -0.109393   0.441100  -0.109560
     3    Cl      -0.221948   0.651211  -0.101793
     4    Cl       0.252812   0.110856   0.256421
     5    Cl       0.183672   0.086523   0.233653
     6    Cl       0.076433   0.017152  -0.072554
     7     O      -0.021915  -0.099906  -0.009234
 
 Mode:    19      Frequency (cm-1):      228.8882     Intensity (km/mol):      316.3775
 Index  Atom      ---- Displacements (x/y/z) ----
     1    Pa      -0.128107   0.038171  -0.138788
     2    Cl       0.051744  -0.249202   0.050451
     3    Cl       0.120992  -0.384468   0.050389
     4    Cl       0.361751   0.182076   0.360252
     5    Cl       0.374602   0.202223   0.485019
     6    Cl      -0.020906  -0.006092   0.018951
     7     O      -0.091364   0.007144  -0.105163
 
 Mode:    20      Frequency (cm-1):      277.9920     Intensity (km/mol):       88.9250
 Index  Atom      ---- Displacements (x/y/z) ----
     1    Pa       0.074431   0.007302  -0.068892
     2    Cl       0.096264  -0.357999   0.072448
     3    Cl      -0.121067   0.372249  -0.058741
     4    Cl      -0.250245  -0.123022  -0.265966
     5    Cl       0.235552   0.119531   0.287189
     6    Cl      -0.455194  -0.058083   0.422970
     7     O       0.006409  -0.002018  -0.005978
 
 Mode:    21      Frequency (cm-1):      830.8724     Intensity (km/mol):      594.0170
 Index  Atom      ---- Displacements (x/y/z) ----
     1    Pa       0.049574   0.005780  -0.046420
     2    Cl      -0.007380   0.021491  -0.002723
     3    Cl       0.005239  -0.021052   0.004895
     4    Cl       0.012826   0.007153   0.016981
     5    Cl      -0.015163  -0.006858  -0.014845
     6    Cl       0.008494   0.001306  -0.007862
     7     O      -0.724845  -0.087954   0.678280

 Vibrational polarizability tensor (a.u.):
                  X                   Y                   Z
 X            1625.64213          -107.98350           375.46871
 Y            -107.98350          1967.76909            48.68878
 Z             375.46871            48.68878          1691.14822

 Isotropic =      1761.5    atomic units

PES point character: Geometry corresponds to a local minimum on the PES.




 ============================
 Statistical Thermal Analysis  ***  ideal gas assumed  ***
 ============================
  
 Pressure:                  1.000000 atm.
 Temperature:             298.150000 K



 Moments of Inertia [amu*bohr^2] and principal axis
 ==================================================

        2796.0894       2798.0630       3567.2914
 ------------------------------------------------
          -0.2623          0.6345         -0.7271
          -0.8804         -0.4659         -0.0889
          -0.3952          0.6167          0.6808


 The rotational contribution to the molecular entropy includes
 a term, dependent on the symmetry number sigma. The results 
 reported below were computed using sigma = 1, determined from
 the point group symmetry of the input geometry (NOSYM). 
 If this is not the correct symmetry, try symmetrizing the molecule before
 running the calculation (note: linear molecules should be aligned along one
 of the Cartesian axes).
 Contributions from frequencies below 20 1/cm are not included in vibrational sums.
 Their contributions, if any, are reported separately.


     Temp                                                        Transl      Rotat     Vibrat     Total
     ----                                                        ------      -----     ------     -----

     298.15   Entropy (cal/mol-K):                               44.009     31.701     41.129    116.840
              Nuclear Internal Energy (kcal/mol):                 0.889      0.889      9.970     11.747
              Constant Volume Heat Capacity (cal/mol-K):          2.981      2.981     26.987     32.949
          (c) Constant Volume Heat Capacity (cal/mol-K):          2.981      2.981     22.106     28.067

       Summary of energy terms
                                                   hartree              eV         kcal/mol           kJ/mol
                                      --------------------     -----------       ----------      -----------
      Energy from Engine:               -2.133792820244127        -58.0635         -1338.98         -5602.27
      Nuclear Internal Energy:           0.018720536958052          0.5094            11.75            49.15
  (c) Nuclear Internal Energy:           0.016236721349600          0.4418            10.19            42.63
      Internal Energy U:                -2.115072283286075        -57.5540         -1327.23         -5553.12
      pV/n = RT:                         0.000944186013486          0.0257             0.59             2.48
      Enthalpy H:                       -2.114128097272589        -57.5284         -1326.64         -5550.64
      -T*S:                             -0.055514299747490         -1.5106           -34.84          -145.75
  (c) -T*S:                             -0.053633340066260         -1.4594           -33.66          -140.81
      Gibbs free energy:                -2.169642397020080        -59.0390         -1361.47         -5696.40
 
 
 
  (c) The properties marked with this symbol have been corrected using 'low vibrational frequency free rotor
      interpolation corrections'. For those terms all positive frequencies are used (also ones below 20 1/cm),
      but the contribution to the partition function of small vibrational frequencies is modified as described
      in the following paper:
      S. Grimme, 'Supramolecular Binding Thermodynamics by Dispersion-Corrected Density Functional Theory'
      (Chem. Eur. J. 2012, 18, 9955-9964)
      Configuration: Dampener Frequency          :   100.000 1/cm
                     Dampener Alpha              :     4.000
                     Averaging Moment of Inertia : 1.000E-44 kg m2

--------------
Atomic charges
--------------
  Index   Atom    Charge
      1     Pa    1.5346
      2     Cl   -0.5661
      3     Cl   -0.5634
      4     Cl   -0.5655
      5     Cl   -0.5643
      6     Cl   -0.4776
      7      O   -0.7977


Dipole moment vector    (Debye):     0.75423866    5.58281069   -1.06425759
              magnitude (Debye):     5.73317498


-----------------------
Molecular orbitals info
-----------------------
n orbitals:              331
n spin:                    1

Note: only printing virtual orbitals with
      energy smaller than HOMO + 100. eV

HOMO (eV):              -8.0711
LUMO (eV):              -1.7701
HOMO-LUMO gap (eV):      6.3010

   Index   Energy (eV)    Occupation
     250       89.2385         0.000       
     249       89.2325         0.000       
     248       83.1835         0.000       
     247       78.7070         0.000       
     246       78.6627         0.000       
     245       78.6560         0.000       
     244       75.7546         0.000       
     243       74.5410         0.000       
     242       74.5335         0.000       
     241       73.9587         0.000       
     240       72.7446         0.000       
     239       72.3445         0.000       
     238       71.4251         0.000       
     237       71.4208         0.000       
     236       71.3266         0.000       
     235       70.3301         0.000       
     234       70.0301         0.000       
     233       69.6113         0.000       
     232       69.1619         0.000       
     231       69.1615         0.000       
     230       67.8102         0.000       
     229       67.8092         0.000       
     228       66.7387         0.000       
     227       65.8909         0.000       
     226       65.8322         0.000       
     225       65.8311         0.000       
     224       65.2360         0.000       
     223       58.7748         0.000       
     222       58.7435         0.000       
     221       58.7385         0.000       
     220       55.8721         0.000       
     219       50.0106         0.000       
     218       50.0066         0.000       
     217       49.9189         0.000       
     216       44.6084         0.000       
     215       42.2951         0.000       
     214       42.2243         0.000       
     213       41.4287         0.000       
     212       41.0816         0.000       
     211       41.0774         0.000       
     210       39.6719         0.000       
     209       39.6696         0.000       
     208       39.5994         0.000       
     207       38.5431         0.000       
     206       38.5187         0.000       
     205       38.2524         0.000       
     204       38.0428         0.000       
     203       37.6183         0.000       
     202       37.6143         0.000       
     201       37.2526         0.000       
     200       37.2126         0.000       
     199       37.2096         0.000       
     198       37.0224         0.000       
     197       37.0212         0.000       
     196       36.8315         0.000       
     195       36.7153         0.000       
     194       36.6156         0.000       
     193       36.5156         0.000       
     192       36.4272         0.000       
     191       36.4227         0.000       
     190       36.3984         0.000       
     189       36.2217         0.000       
     188       36.2209         0.000       
     187       36.0006         0.000       
     186       35.4725         0.000       
     185       35.4240         0.000       
     184       35.3791         0.000       
     183       35.3712         0.000       
     182       34.7461         0.000       
     181       34.3435         0.000       
     180       34.3407         0.000       
     179       32.2662         0.000       
     178       31.4453         0.000       
     177       31.4401         0.000       
     176       26.2251         0.000       
     175       25.9704         0.000       
     174       24.3813         0.000       
     173       24.3716         0.000       
     172       24.0533         0.000       
     171       23.6398         0.000       
     170       23.6368         0.000       
     169       23.3453         0.000       
     168       23.3424         0.000       
     167       23.3260         0.000       
     166       22.6864         0.000       
     165       21.4633         0.000       
     164       21.0063         0.000       
     163       21.0012         0.000       
     162       20.7278         0.000       
     161       20.5968         0.000       
     160       18.6521         0.000       
     159       18.2331         0.000       
     158       17.4475         0.000       
     157       16.7665         0.000       
     156       16.7643         0.000       
     155       16.5091         0.000       
     154       16.5042         0.000       
     153       15.6365         0.000       
     152       15.5526         0.000       
     151       15.4291         0.000       
     150       15.1646         0.000       
     149       15.1610         0.000       
     148       14.5682         0.000       
     147       14.2372         0.000       
     146       14.0057         0.000       
     145       13.9833         0.000       
     144       13.9826         0.000       
     143       13.8767         0.000       
     142       13.6956         0.000       
     141       13.6264         0.000       
     140       13.6254         0.000       
     139       13.4277         0.000       
     138       12.5153         0.000       
     137       11.6182         0.000       
     136       11.6158         0.000       
     135       11.5363         0.000       
     134       10.8949         0.000       
     133       10.8935         0.000       
     132       10.8100         0.000       
     131       10.4083         0.000       
     130       10.3114         0.000       
     129       10.3093         0.000       
     128       10.0719         0.000       
     127        9.5625         0.000       
     126        9.3129         0.000       
     125        9.1678         0.000       
     124        9.1665         0.000       
     123        9.0464         0.000       
     122        8.8020         0.000       
     121        8.3745         0.000       
     120        8.3716         0.000       
     119        7.7323         0.000       
     118        7.2482         0.000       
     117        7.0897         0.000       
     116        7.0881         0.000       
     115        6.0671         0.000       
     114        3.9492         0.000       
     113        3.4817         0.000       
     112        3.4631         0.000       
     111        3.4199         0.000       
     110        3.4184         0.000       
     109        2.8748         0.000       
     108        2.6981         0.000       
     107        2.6980         0.000       
     106        2.2266         0.000       
     105        2.0205         0.000       
     104        1.6869         0.000       
     103        1.6835         0.000       
     102        0.3298         0.000       
     101       -0.1881         0.000       
     100       -0.7404         0.000       
      99       -1.3610         0.000       
      98       -1.3625         0.000       
      97       -1.6059         0.000       
      96       -1.6062         0.000       
      95       -1.6688         0.000       
      94       -1.7701         0.000 < LUMO
      93       -8.0711         2.000 < HOMO
      92       -8.1122         2.000       
      91       -8.1125         2.000       
      90       -8.1187         2.000       
      89       -8.5325         2.000       
      88       -8.5371         2.000       
      87       -8.5373         2.000       
      86       -8.6354         2.000       
      85       -8.6366         2.000       
      84       -8.8614         2.000       
      83       -9.0441         2.000       
      82       -9.0452         2.000       
      81       -9.3316         2.000       
      80       -9.7684         2.000       
      79       -9.8219         2.000       
      78      -10.1930         2.000       
      77      -10.1942         2.000       
      76      -10.4344         2.000       
      75      -20.5672         2.000       
      74      -21.0443         2.000       
      73      -21.0444         2.000       
      72      -21.6345         2.000       
      71      -21.7143         2.000       
      70      -22.5054         2.000       
      69      -25.8533         2.000       
      68      -25.8546         2.000       
      67      -29.5850         2.000       
      66      -50.1697         2.000       
      65     -100.0499         2.000       
      64     -100.0944         2.000       
      63     -100.0950         2.000       
      62     -100.1869         2.000       
      61     -100.1923         2.000       
      60     -196.0905         2.000       
      59     -196.0934         2.000       
      58     -196.1002         2.000       
      57     -196.1018         2.000       
      56     -196.1032         2.000       
      55     -196.1047         2.000       
      54     -196.1114         2.000       
      53     -196.1147         2.000       
      52     -196.1235         2.000       
      51     -196.1263         2.000       
      50     -196.1344         2.000       
      49     -196.1374         2.000       
      48     -196.3878         2.000       
      47     -196.3880         2.000       
      46     -196.4201         2.000       
      45     -207.1945         2.000       
      44     -207.4513         2.000       
      43     -207.4517         2.000       
      42     -259.6556         2.000       
      41     -259.6586         2.000       
      40     -259.6668         2.000       
      39     -259.6699         2.000       
      38     -259.9504         2.000       
      37     -305.8862         2.000       
      36     -361.1373         2.000       
      35     -361.1728         2.000       
      34     -361.1730         2.000       
      33     -361.2947         2.000       
      32     -361.3130         2.000       
      31     -361.4287         2.000       
      30     -361.4287         2.000       
      29     -522.5239         2.000       
      28     -712.9560         2.000       
      27     -713.1060         2.000       
      26     -713.1061         2.000       
      25     -713.2649         2.000       
      24     -713.2960         2.000       
      23    -1041.2410         2.000       
      22    -1041.5450         2.000       
      21    -1041.5450         2.000       
      20    -1359.6225         2.000       
      19    -2775.8376         2.000       
      18    -2775.8405         2.000       
      17    -2775.8485         2.000       
      16    -2775.8514         2.000       
      15    -2776.1308         2.000       
      14    -3484.8334         2.000       
      13    -3484.8906         2.000       
      12    -3484.8906         2.000       
      11    -3484.9663         2.000       
      10    -3484.9776         2.000       
       9    -4347.0485         2.000       
       8    -4347.2180         2.000       
       7    -4347.2181         2.000       
       6    -5318.2215         2.000       
       5   -17561.1713         2.000       
       4   -17561.1961         2.000       
       3   -17561.1968         2.000       
       2   -21036.9882         2.000       
       1  -112698.7970         2.000       

Final PES point is a local minimum. Geometry optimization successful!


AMS application finished. Exiting.
NORMAL TERMINATION
     Total cpu time:   18301.82
  Total system time:    6739.85
 Total elapsed time:   27526.86
