

 Parallel Execution: Process Information
 ==============================================================================
 Rank   Node Name                              NodeID   MyNodeRank  NodeMaster
    0   u-0-11.local                              0          0          0
    1   u-0-11.local                              0          1         -1
    2   u-0-11.local                              1          0          1
    3   u-0-11.local                              1          1         -1
    4   u-0-11.local                              2          0          2
    5   u-0-11.local                              2          1         -1
    6   u-0-11.local                              3          0          3
    7   u-0-11.local                              3          1         -1
 ==============================================================================


May use up to 31200MB of RAM as shared memory on node 0
May use up to 31250MB of RAM as shared memory on node 2
May use up to 31250MB of RAM as shared memory on node 3
May use up to 31250MB of RAM as shared memory on node 1

 *******************************************************************************
 *                                                                             *
 *  --------------------------------                                           *
 *   Amsterdam Modeling Suite (AMS)              2023.101                      *
 *  --------------------------------                                           *
 *                                               r111868 2023-03-31            *
 *                                                                             *
 *                                                                             *
 *                              =================                              *
 *                              |               |                              *
 *                              |     A M S     |                              *
 *                              |               |                              *
 *                              =================                              *
 *                                                                             *
 *                                                                             *
 *   Online information and documentation:  https://www.scm.com/support/       *
 *   E-mail:  support@scm.com   info@scm.com                                   *
 *                                                                             *
 *   Scientific publications using AMS results must be properly referenced     *
 *   See the User Manuals (or the web site) for recommended citations          *
 *   The terms and conditions of the End User License Agreement apply to       *
 *   the use of AMS, https://www.scm.com/license-terms/                        *
 *                                                                             *
 **********************  x86_64_linux_intel / intelmpi  ************************
 
 Licensed to: Dr. Val?rie Vallet / Laboratoire PhLAM UMR 8523 / Villeneuve d'Ascq Cedex / FRANCE 2024-02-19 16:59:55
 SCM User ID: u10325
  
 AMS 2023.101  RunTime: Feb25-2024 23:25:30  ShM Nodes: 4  Procs: 8

 AMS jobname: pao_cl3_3h2o.SR.b3lyp.dzp.opt-freq
 AMS jobid  : 1803064472

 Start   directory: /home/shaaban/ams/PhD/geometries-exafs/pao_cl3_3h2o/
 Results directory: /home/shaaban/ams/PhD/geometries-exafs/pao_cl3_3h2o/pao_cl3_3h2o.SR.b3lyp.dzp.opt-freq.results/
 Scratch directory: /state/partition2/shaaban/1008138.phlam-s-sakura/amstmp_pao_cl3_3h2o.SR.b3lyp.dzp.opt-freq_kid0.1803064472/


 Communication costs MPI_COMM_WORLD:      1.729 usec per message,   0.0126 usec per 8-byte item
 Communication costs for intra-node:      0.425 usec per message,   0.0027 usec per 8-byte item

 RNG seed: 878919185 -1650830724 -775129670 677201223 1486196510 -2018096370 -459481129 -1097891606



                      ************************************************************************
                      *  ADF 2023.101  RunTime: Feb25-2024 23:25:31  ShM Nodes: 4  Procs: 8  *
                      ************************************************************************
  

       ***************************
       *  GEOMETRY OPTIMIZATION  *
       ***************************

Optimization Method                    Quasi Newton
Optimization Coordinates               Delocalized Coordinates
Optimize lattice                       F
 
 ------------------------------------------------------
 Convergence criteria (Hartree,Angstrom)
 ------------------------------------------------------
 Maximum gradient               0.000100000000
 Maximum rms gradient           0.000066666667
 Maximum step allowed           0.001000000000
 Maximum rms step allowed       0.000666666667
 Maximum energy change allowe   0.000014000000
 Maximum stress energy allowe   0.000500000000
 
Initial model Hessian                  Automatic Hessian
 
------------------------------------
Quasi-Newton Optimizer Parameters
------------------------------------
Hessian Update Method                  BFGS
Maximum number of steps                  250
First GDIIS cycle                          0
Maximum GDIIS vectors                      0
Trust radius (bohr)                        0.200000
Trust radius varies                        T
Constraints converged at all steps         T
Use projector                              T
 
 Rigid motions settings for: old optimizer
 Atomic rotations (x,y,z):     T T T
 Atomic translations (x,y,z):  T T T
 Tolerance:                   1.000000000000000E-006
 
--------
Geometry
--------
Formula: H6Cl3O4Pa
Atoms
  Index Symbol   x (angstrom)   y (angstrom)   z (angstrom)
      1     Pa     0.68653362    -0.21454176    -0.00000000
      2      O     0.61585555     2.07436729     0.00000000
      3     Cl     3.30540238    -0.13755862     0.00000000
      4     Cl     0.68665774    -2.83454175     0.00000000
      5     Cl    -1.93337097    -0.19218230     0.00000000
      6      O     2.24558942     1.46279095     0.00000000
      7      H     2.09390324     2.41073151     0.00000000
      8      H     3.19354915     1.31122461     0.00000000
      9      O     2.34825618    -1.79022514     0.00000000
     10      H     2.14045789    -2.72746570     0.00000000
     11      H     3.30515118    -1.71307612     0.00000000
     12      O    -1.11835362    -1.62396790     0.00000000
     13      H    -0.91180952    -2.56148566     0.00000000
     14      H    -2.07773537    -1.58952017     0.00000000
 
Total System Charge             0.00000
Bonding info available!
 
 
----------------
ADF Engine Input
----------------
 
 Basis
 Type DZP
 Core None
 End
 XC
 Hybrid B3LYP
 End
 NumericalQuality Good
 

 Title: *** (NO TITLE) ***

Number of symmetry operators: 2
Schoenflies symbol:           C(S)
 Using automatic Hessian for delocalized coordinates.
 *** GO1_GOStep1 ***



 ======================
 RI Hartree-Fock Scheme
 ======================
  
 Fit Set Quality     : GOOD
 Threshold Quality   : GOOD
 Integration Quality : GOOD
 Fit Generation Method : AUTO
 Response Quality    : DEFAULT
 Is Range Separated  :  F
 
 RIHartreeFock Dependency: number of modified vectors:           0
  
 Hartree-Fock exchange energy:   -584.670542018452     

 Energy gradients wrt nuclear displacements
 ==========================================

     Atom      Cartesian (a.u./angstrom)
                 X         Y         Z
 ----------------------------------------
     1 Pa   -0.004373 -0.272521  0.000000
     2 O     0.302858  0.069038  0.000000
     3 Cl   -0.436376  0.022266  0.000000
     4 Cl    0.232056  0.323323  0.000000
     5 Cl    0.355566 -0.823048  0.000000
     6 O    -0.013329 -0.195449  0.000000
     7 H     0.042140 -0.066129  0.000000
     8 H    -0.113800 -0.054857  0.000000
     9 O    -0.102729  0.152811  0.000000
    10 H    -0.064773  0.076311  0.000000
    11 H    -0.079948  0.014263  0.000000
    12 O    -0.163332  0.486449  0.000000
    13 H    -0.037844  0.146447  0.000000
    14 H     0.083884  0.121098  0.000000
 ----------------------------------------
 Mulliken charges used for AMS results%charges...
 
----------------------------------------------------------------------
Geometry Convergence after Step   1       (Hartree/Angstrom,Angstrom)
----------------------------------------------------------------------
current energy                               -2.06549978 Hartree
energy change                      -2.06549978     0.00001400    F
constrained gradient max            0.82280065     0.00010000    F
constrained gradient rms            0.20370460     0.00006667    F
gradient max                        0.82280065
gradient rms                        0.20370460
cart. step max                      0.05239131     0.00100000    F
cart. step rms                      0.01558418     0.00066667    F
 
 
--------
Geometry
--------
Formula: H6Cl3O4Pa
Atoms
  Index Symbol   x (angstrom)   y (angstrom)   z (angstrom)
      1     Pa     0.69316106    -0.21816290    -0.00000000
      2      O     0.57826462     2.05959763     0.00000000
      3     Cl     3.33050029    -0.13413471     0.00000000
      4     Cl     0.68005351    -2.85863369     0.00000000
      5     Cl    -1.93914458    -0.13979099     0.00000000
      6      O     2.24310164     1.47490490     0.00000000
      7      H     2.07593933     2.42835060     0.00000000
      8      H     3.20812244     1.32830946     0.00000000
      9      O     2.36305902    -1.80622480     0.00000000
     10      H     2.14918726    -2.75441748     0.00000000
     11      H     3.33144508    -1.72216110     0.00000000
     12      O    -1.12151371    -1.62882634     0.00000000
     13      H    -0.91942373    -2.58319530     0.00000000
     14      H    -2.09266535    -1.57106605     0.00000000
 
Total System Charge             0.00000
Bonding info available!
 
 *** GO1_GOStep2 ***



 ======================
 RI Hartree-Fock Scheme
 ======================
  
 Fit Set Quality     : GOOD
 Threshold Quality   : GOOD
 Integration Quality : GOOD
 Fit Generation Method : AUTO
 Response Quality    : DEFAULT
 Is Range Separated  :  F
 
 RIHartreeFock Dependency: number of modified vectors:           0
  
 Hartree-Fock exchange energy:   -584.616872359008     

 Energy gradients wrt nuclear displacements
 ==========================================

     Atom      Cartesian (a.u./angstrom)
                 X         Y         Z
 ----------------------------------------
     1 Pa    0.004580 -0.267076  0.000000
     2 O     0.285844  0.090250  0.000000
     3 Cl   -0.415298  0.017009  0.000000
     4 Cl    0.205027  0.307519  0.000000
     5 Cl    0.313590 -0.749526  0.000000
     6 O    -0.039053 -0.200383  0.000000
     7 H     0.041008 -0.044440  0.000000
     8 H    -0.079809 -0.053562  0.000000
     9 O    -0.110021  0.163080  0.000000
    10 H    -0.061473  0.053199  0.000000
    11 H    -0.054820  0.012477  0.000000
    12 O    -0.115845  0.473602  0.000000
    13 H    -0.022730  0.102222  0.000000
    14 H     0.049000  0.095630  0.000000
 ----------------------------------------
 Mulliken charges used for AMS results%charges...

 dE(predicted):    -0.87855E-01, dE(actual):    -0.91914E-01, Trust radius:    0.400000, all in a.u.
 
----------------------------------------------------------------------
Geometry Convergence after Step   2       (Hartree/Angstrom,Angstrom)
----------------------------------------------------------------------
current energy                               -2.15741346 Hartree
energy change                      -0.09191368     0.00001400    F
constrained gradient max            0.74931894     0.00010000    F
constrained gradient rms            0.18860203     0.00006667    F
gradient max                        0.74931894
gradient rms                        0.18860203
cart. step max                      0.10563116     0.00100000    F
cart. step rms                      0.03095805     0.00066667    F
 
 
--------
Geometry
--------
Formula: H6Cl3O4Pa
Atoms
  Index Symbol   x (angstrom)   y (angstrom)   z (angstrom)
      1     Pa     0.70665039    -0.22523448    -0.00000000
      2      O     0.49921599     2.01693163     0.00000000
      3     Cl     3.38278143    -0.12618759     0.00000000
      4     Cl     0.66719946    -2.90624719     0.00000000
      5     Cl    -1.94537913    -0.03415983     0.00000000
      6      O     2.23840188     1.49846070     0.00000000
      7      H     2.03743954     2.45388958     0.00000000
      8      H     3.22875769     1.36511473     0.00000000
      9      O     2.39465604    -1.83981376     0.00000000
     10      H     2.16885591    -2.80425571     0.00000000
     11      H     3.37924304    -1.74137047     0.00000000
     12      O    -1.12840858    -1.63776449     0.00000000
     13      H    -0.93848338    -2.61395151     0.00000000
     14      H    -2.11084339    -1.53086237     0.00000000
 
Total System Charge             0.00000
Bonding info available!
 
 *** GO1_GOStep3 ***



 ======================
 RI Hartree-Fock Scheme
 ======================
  
 Fit Set Quality     : GOOD
 Threshold Quality   : GOOD
 Integration Quality : GOOD
 Fit Generation Method : AUTO
 Response Quality    : DEFAULT
 Is Range Separated  :  F
 
 RIHartreeFock Dependency: number of modified vectors:           0
  
 Hartree-Fock exchange energy:   -584.554274705509     

 Energy gradients wrt nuclear displacements
 ==========================================

     Atom      Cartesian (a.u./angstrom)
                 X         Y         Z
 ----------------------------------------
     1 Pa    0.023379 -0.268916  0.000000
     2 O     0.255832  0.137023  0.000000
     3 Cl   -0.378932  0.009707  0.000000
     4 Cl    0.159640  0.281364  0.000000
     5 Cl    0.240800 -0.614472  0.000000
     6 O    -0.082080 -0.201878  0.000000
     7 H     0.039107 -0.014451  0.000000
     8 H    -0.026741 -0.051072  0.000000
     9 O    -0.113836  0.175867  0.000000
    10 H    -0.054835  0.016588  0.000000
    11 H    -0.016710  0.008270  0.000000
    12 O    -0.050258  0.424488  0.000000
    13 H    -0.001944  0.040707  0.000000
    14 H     0.006578  0.056774  0.000000
 ----------------------------------------
 Mulliken charges used for AMS results%charges...

 dE(predicted):    -0.16051E+00, dE(actual):    -0.16137E+00, Trust radius:    0.800000, all in a.u.
 
----------------------------------------------------------------------
Geometry Convergence after Step   3       (Hartree/Angstrom,Angstrom)
----------------------------------------------------------------------
current energy                               -2.31878318 Hartree
energy change                      -0.16136972     0.00001400    F
constrained gradient max            0.61435498     0.00010000    F
constrained gradient rms            0.16393213     0.00006667    F
gradient max                        0.61435498
gradient rms                        0.16393213
cart. step max                      0.20841815     0.00100000    F
cart. step rms                      0.06261330     0.00066667    F
 
 
--------
Geometry
--------
Formula: H6Cl3O4Pa
Atoms
  Index Symbol   x (angstrom)   y (angstrom)   z (angstrom)
      1     Pa     0.73569070    -0.24033550    -0.00000000
      2      O     0.33495989     1.88170686     0.00000000
      3     Cl     3.49045344    -0.10633510     0.00000000
      4     Cl     0.64245852    -2.99734346     0.00000000
      5     Cl    -1.93436207     0.17425832     0.00000000
      6      O     2.22868884     1.54225303     0.00000000
      7      H     1.95238871     2.48183743     0.00000000
      8      H     3.24710402     1.44265030     0.00000000
      9      O     2.45905514    -1.90748493     0.00000000
     10      H     2.20999722    -2.88944793     0.00000000
     11      H     3.45974447    -1.77758600     0.00000000
     12      O    -1.14152502    -1.64720133     0.00000000
     13      H    -0.98228784    -2.64505317     0.00000000
     14      H    -2.12227914    -1.43736930     0.00000000
 
Total System Charge             0.00000
Bonding info available!
 
 *** GO1_GOStep4 ***



 ======================
 RI Hartree-Fock Scheme
 ======================
  
 Fit Set Quality     : GOOD
 Threshold Quality   : GOOD
 Integration Quality : GOOD
 Fit Generation Method : AUTO
 Response Quality    : DEFAULT
 Is Range Separated  :  F
 
 RIHartreeFock Dependency: number of modified vectors:           0
  
 Hartree-Fock exchange energy:   -584.461616309017     

 Energy gradients wrt nuclear displacements
 ==========================================

     Atom      Cartesian (a.u./angstrom)
                 X         Y         Z
 ----------------------------------------
     1 Pa    0.062461 -0.254606  0.000000
     2 O     0.151901  0.192701  0.000000
     3 Cl   -0.298277  0.001354  0.000000
     4 Cl    0.094467  0.225774  0.000000
     5 Cl    0.135522 -0.375993  0.000000
     6 O    -0.096077 -0.186884  0.000000
     7 H     0.031722  0.008987  0.000000
     8 H     0.026664 -0.040903  0.000000
     9 O    -0.111757  0.156998  0.000000
    10 H    -0.041698 -0.022834  0.000000
    11 H     0.029705  0.009477  0.000000
    12 O     0.022652  0.290502  0.000000
    13 H     0.017764 -0.019362  0.000000
    14 H    -0.025050  0.014790  0.000000
 ----------------------------------------
 Mulliken charges used for AMS results%charges...
 Rebuilding optimization coordinates

 dE(predicted):    -0.25231E+00, dE(actual):    -0.25300E+00, Trust radius:    1.000000, all in a.u.
 
----------------------------------------------------------------------
Geometry Convergence after Step   4       (Hartree/Angstrom,Angstrom)
----------------------------------------------------------------------
current energy                               -2.57178574 Hartree
energy change                      -0.25300256     0.00001400    F
constrained gradient max            0.37592010     0.00010000    F
constrained gradient rms            0.12071001     0.00006667    F
gradient max                        0.37592010
gradient rms                        0.12071001
cart. step max                      0.21175900     0.00100000    F
cart. step rms                      0.06799220     0.00066667    F
 
 
--------
Geometry
--------
Formula: H6Cl3O4Pa
Atoms
  Index Symbol   x (angstrom)   y (angstrom)   z (angstrom)
      1     Pa     0.76071144    -0.25131410    -0.00000000
      2      O     0.18858247     1.67184445     0.00000000
      3     Cl     3.61241974    -0.07767750     0.00000000
      4     Cl     0.61399157    -3.09447489     0.00000000
      5     Cl    -1.91371002     0.38601732     0.00000000
      6      O     2.22260149     1.59919544     0.00000000
      7      H     1.86004310     2.50712195     0.00000000
      8      H     3.25115515     1.53204025     0.00000000
      9      O     2.52755857    -1.97591313     0.00000000
     10      H     2.25480747    -2.96232653     0.00000000
     11      H     3.52571688    -1.81337134     0.00000000
     12      O    -1.16265474    -1.65322881     0.00000000
     13      H    -1.03710319    -2.65753643     0.00000000
     14      H    -2.12403306    -1.33582745     0.00000000
 
Total System Charge             0.00000
Bonding info available!
 
 *** GO1_GOStep5 ***



 ======================
 RI Hartree-Fock Scheme
 ======================
  
 Fit Set Quality     : GOOD
 Threshold Quality   : GOOD
 Integration Quality : GOOD
 Fit Generation Method : AUTO
 Response Quality    : DEFAULT
 Is Range Separated  :  F
 
 RIHartreeFock Dependency: number of modified vectors:           0
  
 Hartree-Fock exchange energy:   -584.375182969964     

 Energy gradients wrt nuclear displacements
 ==========================================

     Atom      Cartesian (a.u./angstrom)
                 X         Y         Z
 ----------------------------------------
     1 Pa    0.086614 -0.194612  0.000000
     2 O     0.015862  0.156339  0.000000
     3 Cl   -0.209494 -0.006633  0.000000
     4 Cl    0.051630  0.166782  0.000000
     5 Cl    0.100414 -0.169239  0.000000
     6 O    -0.068838 -0.145609  0.000000
     7 H     0.015211  0.007850  0.000000
     8 H     0.043764 -0.028641  0.000000
     9 O    -0.087492  0.121273  0.000000
    10 H    -0.036565 -0.042510  0.000000
    11 H     0.042159  0.013713  0.000000
    12 O     0.059512  0.153206  0.000000
    13 H     0.021388 -0.035096  0.000000
    14 H    -0.034166  0.003178  0.000000
 ----------------------------------------
 Mulliken charges used for AMS results%charges...

 dE(predicted):    -0.19651E+00, dE(actual):    -0.18234E+00, Trust radius:    1.000000, all in a.u.
 
----------------------------------------------------------------------
Geometry Convergence after Step   5       (Hartree/Angstrom,Angstrom)
----------------------------------------------------------------------
current energy                               -2.75412828 Hartree
energy change                      -0.18234254     0.00001400    F
constrained gradient max            0.20948436     0.00010000    F
constrained gradient rms            0.08010841     0.00006667    F
gradient max                        0.20948436
gradient rms                        0.08010841
cart. step max                      0.21117745     0.00100000    F
cart. step rms                      0.06029968     0.00066667    F
 
 
--------
Geometry
--------
Formula: H6Cl3O4Pa
Atoms
  Index Symbol   x (angstrom)   y (angstrom)   z (angstrom)
      1     Pa     0.77458236    -0.25714790    -0.00000000
      2      O     0.10571011     1.46066700     0.00000000
      3     Cl     3.73150972    -0.04317112     0.00000000
      4     Cl     0.58077782    -3.19090421     0.00000000
      5     Cl    -1.91437557     0.56455471     0.00000000
      6      O     2.22436131     1.66308344     0.00000000
      7      H     1.78669638     2.53683266     0.00000000
      8      H     3.25271088     1.62303551     0.00000000
      9      O     2.58593484    -2.03496161     0.00000000
     10      H     2.29352170    -3.01578798     0.00000000
     11      H     3.57303586    -1.84127358     0.00000000
     12      O    -1.19414705    -1.66418493     0.00000000
     13      H    -1.09450908    -2.66758646     0.00000000
     14      H    -2.12572240    -1.25860632     0.00000000
 
Total System Charge             0.00000
Bonding info available!
 
 *** GO1_GOStep6 ***



 ======================
 RI Hartree-Fock Scheme
 ======================
  
 Fit Set Quality     : GOOD
 Threshold Quality   : GOOD
 Integration Quality : GOOD
 Fit Generation Method : AUTO
 Response Quality    : DEFAULT
 Is Range Separated  :  F
 
 RIHartreeFock Dependency: number of modified vectors:           0
  
 Hartree-Fock exchange energy:   -584.372374582694     

 Energy gradients wrt nuclear displacements
 ==========================================

     Atom      Cartesian (a.u./angstrom)
                 X         Y         Z
 ----------------------------------------
     1 Pa    0.050222 -0.051821  0.000000
     2 O    -0.078632  0.015038  0.000000
     3 Cl   -0.142900 -0.010618  0.000000
     4 Cl    0.023929  0.122959  0.000000
     5 Cl    0.139710 -0.045677  0.000000
     6 O    -0.036852 -0.104265  0.000000
     7 H    -0.003834  0.003192  0.000000
     8 H     0.046364 -0.018329  0.000000
     9 O    -0.056315  0.084807  0.000000
    10 H    -0.032833 -0.048002  0.000000
    11 H     0.040243  0.015882  0.000000
    12 O     0.067439  0.063283  0.000000
    13 H     0.020613 -0.035557  0.000000
    14 H    -0.037155  0.009109  0.000000
 ----------------------------------------
 Mulliken charges used for AMS results%charges...

 dE(predicted):    -0.88874E-01, dE(actual):    -0.91670E-01, Trust radius:    1.000000, all in a.u.
 
----------------------------------------------------------------------
Geometry Convergence after Step   6       (Hartree/Angstrom,Angstrom)
----------------------------------------------------------------------
current energy                               -2.84579850 Hartree
energy change                      -0.09167022     0.00001400    F
constrained gradient max            0.14289710     0.00010000    F
constrained gradient rms            0.05152660     0.00006667    F
gradient max                        0.14289710
gradient rms                        0.05152660
cart. step max                      0.17038878     0.00100000    F
cart. step rms                      0.05849196     0.00066667    F
 
 
--------
Geometry
--------
Formula: H6Cl3O4Pa
Atoms
  Index Symbol   x (angstrom)   y (angstrom)   z (angstrom)
      1     Pa     0.75341907    -0.23325460    -0.00000000
      2      O     0.14888949     1.35274534     0.00000000
      3     Cl     3.87258699    -0.01094395     0.00000000
      4     Cl     0.53871243    -3.30703363     0.00000000
      5     Cl    -2.08476435     0.65556616     0.00000000
      6      O     2.28475815     1.76718125     0.00000000
      7      H     1.81273435     2.62158646     0.00000000
      8      H     3.29225461     1.72454093     0.00000000
      9      O     2.62583001    -2.08550483     0.00000000
     10      H     2.32889020    -3.03980002     0.00000000
     11      H     3.58632699    -1.87139737     0.00000000
     12      O    -1.25839882    -1.71553044     0.00000000
     13      H    -1.16448519    -2.70387855     0.00000000
     14      H    -2.15666705    -1.27972752     0.00000000
 
Total System Charge             0.00000
Bonding info available!
 
 *** GO1_GOStep7 ***



 ======================
 RI Hartree-Fock Scheme
 ======================
  
 Fit Set Quality     : GOOD
 Threshold Quality   : GOOD
 Integration Quality : GOOD
 Fit Generation Method : AUTO
 Response Quality    : DEFAULT
 Is Range Separated  :  F
 
 RIHartreeFock Dependency: number of modified vectors:           0
  
 Hartree-Fock exchange energy:   -584.396932979161     

 Energy gradients wrt nuclear displacements
 ==========================================

     Atom      Cartesian (a.u./angstrom)
                 X         Y         Z
 ----------------------------------------
     1 Pa   -0.055904  0.198988  0.000000
     2 O     0.026232 -0.178317  0.000000
     3 Cl   -0.085733 -0.006875  0.000000
     4 Cl    0.003638  0.079952  0.000000
     5 Cl    0.082844 -0.016741  0.000000
     6 O     0.000768 -0.055239  0.000000
     7 H    -0.018752 -0.002528  0.000000
     8 H     0.028173 -0.013511  0.000000
     9 O    -0.006114  0.029524  0.000000
    10 H    -0.021481 -0.024783  0.000000
    11 H     0.011474  0.008469  0.000000
    12 O     0.038656 -0.006479  0.000000
    13 H     0.015192 -0.017633  0.000000
    14 H    -0.018995  0.005172  0.000000
 ----------------------------------------
 Mulliken charges used for AMS results%charges...

 dE(predicted):    -0.48490E-01, dE(actual):    -0.61439E-01, Trust radius:    1.000000, all in a.u.
 
----------------------------------------------------------------------
Geometry Convergence after Step   7       (Hartree/Angstrom,Angstrom)
----------------------------------------------------------------------
current energy                               -2.90723724 Hartree
energy change                      -0.06143874     0.00001400    F
constrained gradient max            0.19899111     0.00010000    F
constrained gradient rms            0.05004591     0.00006667    F
gradient max                        0.19899111
gradient rms                        0.05004591
cart. step max                      0.12959673     0.00100000    F
cart. step rms                      0.03831161     0.00066667    F
 
 
--------
Geometry
--------
Formula: H6Cl3O4Pa
Atoms
  Index Symbol   x (angstrom)   y (angstrom)   z (angstrom)
      1     Pa     0.74317120    -0.24011975    -0.00000000
      2      O     0.16912583     1.39445647     0.00000000
      3     Cl     3.96535951     0.00325846     0.00000000
      4     Cl     0.51647704    -3.40317548     0.00000000
      5     Cl    -2.21436108     0.68216233     0.00000000
      6      O     2.31938407     1.83120002     0.00000000
      7      H     1.85964785     2.68405641     0.00000000
      8      H     3.30082311     1.77532812     0.00000000
      9      O     2.64899630    -2.12460142     0.00000000
     10      H     2.35529086    -3.05452554     0.00000000
     11      H     3.58927476    -1.89447726     0.00000000
     12      O    -1.29824848    -1.74989108     0.00000000
     13      H    -1.20620435    -2.72251375     0.00000000
     14      H    -2.16864974    -1.30660830     0.00000000
 
Total System Charge             0.00000
Bonding info available!
 
 *** GO1_GOStep8 ***



 ======================
 RI Hartree-Fock Scheme
 ======================
  
 Fit Set Quality     : GOOD
 Threshold Quality   : GOOD
 Integration Quality : GOOD
 Fit Generation Method : AUTO
 Response Quality    : DEFAULT
 Is Range Separated  :  F
 
 RIHartreeFock Dependency: number of modified vectors:           0
  
 Hartree-Fock exchange energy:   -584.321523159533     

 Energy gradients wrt nuclear displacements
 ==========================================

     Atom      Cartesian (a.u./angstrom)
                 X         Y         Z
 ----------------------------------------
     1 Pa   -0.025918  0.118571  0.000000
     2 O     0.028309 -0.078615  0.000000
     3 Cl   -0.054696 -0.001111  0.000000
     4 Cl   -0.001261  0.054297  0.000000
     5 Cl    0.036022 -0.006179  0.000000
     6 O     0.019778 -0.019521  0.000000
     7 H    -0.015262 -0.010448  0.000000
     8 H    -0.002546 -0.013684  0.000000
     9 O     0.024920 -0.014852  0.000000
    10 H    -0.010364  0.007743  0.000000
    11 H    -0.015482  0.000853  0.000000
    12 O    -0.005825 -0.034375  0.000000
    13 H     0.010073  0.005889  0.000000
    14 H     0.012253 -0.008570  0.000000
 ----------------------------------------
 Mulliken charges used for AMS results%charges...
 Rebuilding optimization coordinates

 dE(predicted):    -0.21477E-01, dE(actual):    -0.30665E-01, Trust radius:    1.000000, all in a.u.
 
----------------------------------------------------------------------
Geometry Convergence after Step   8       (Hartree/Angstrom,Angstrom)
----------------------------------------------------------------------
current energy                               -2.93790262 Hartree
energy change                      -0.03066538     0.00001400    F
constrained gradient max            0.11857229     0.00010000    F
constrained gradient rms            0.02808308     0.00006667    F
gradient max                        0.11857229
gradient rms                        0.02808308
cart. step max                      0.11746338     0.00100000    F
cart. step rms                      0.03841208     0.00066667    F
 
 
--------
Geometry
--------
Formula: H6Cl3O4Pa
Atoms
  Index Symbol   x (angstrom)   y (angstrom)   z (angstrom)
      1     Pa     0.73656587    -0.26248074    -0.00000000
      2      O     0.17051123     1.40437175     0.00000000
      3     Cl     4.06653578     0.02425080     0.00000000
      4     Cl     0.49435946    -3.51558075     0.00000000
      5     Cl    -2.33182446     0.72280392     0.00000000
      6      O     2.34159851     1.89185260     0.00000000
      7      H     1.90189209     2.75016442     0.00000000
      8      H     3.30980068     1.83374916     0.00000000
      9      O     2.67136315    -2.16083280     0.00000000
     10      H     2.38339537    -3.08431483     0.00000000
     11      H     3.60761920    -1.91060044     0.00000000
     12      O    -1.33292046    -1.77019094     0.00000000
     13      H    -1.24872580    -2.73920674     0.00000000
     14      H    -2.19008376    -1.30943618     0.00000000
 
Total System Charge             0.00000
Bonding info available!
 
 *** GO1_GOStep9 ***



 ======================
 RI Hartree-Fock Scheme
 ======================
  
 Fit Set Quality     : GOOD
 Threshold Quality   : GOOD
 Integration Quality : GOOD
 Fit Generation Method : AUTO
 Response Quality    : DEFAULT
 Is Range Separated  :  F
 
 RIHartreeFock Dependency: number of modified vectors:           0
  
 Hartree-Fock exchange energy:   -584.232919559723     

 Energy gradients wrt nuclear displacements
 ==========================================

     Atom      Cartesian (a.u./angstrom)
                 X         Y         Z
 ----------------------------------------
     1 Pa   -0.008836  0.062401  0.000000
     2 O     0.020431 -0.010430  0.000000
     3 Cl   -0.029112  0.003683  0.000000
     4 Cl   -0.002463  0.030348  0.000000
     5 Cl    0.013075  0.004474  0.000000
     6 O     0.028215  0.003314  0.000000
     7 H    -0.011253 -0.014419  0.000000
     8 H    -0.020216 -0.010948  0.000000
     9 O     0.033706 -0.040563  0.000000
    10 H    -0.004419  0.019901  0.000000
    11 H    -0.016477 -0.001727  0.000000
    12 O    -0.029324 -0.047259  0.000000
    13 H     0.005937  0.014242  0.000000
    14 H     0.020736 -0.013016  0.000000
 ----------------------------------------
 Mulliken charges used for AMS results%charges...

 dE(predicted):    -0.10922E-01, dE(actual):    -0.14591E-01, Trust radius:    1.000000, all in a.u.
 
----------------------------------------------------------------------
Geometry Convergence after Step   9       (Hartree/Angstrom,Angstrom)
----------------------------------------------------------------------
current energy                               -2.95249392 Hartree
energy change                      -0.01459131     0.00001400    F
constrained gradient max            0.06240016     0.00010000    F
constrained gradient rms            0.01924143     0.00006667    F
gradient max                        0.06240016
gradient rms                        0.01924143
cart. step max                      0.04272421     0.00100000    F
cart. step rms                      0.01333255     0.00066667    F
 
 
--------
Geometry
--------
Formula: H6Cl3O4Pa
Atoms
  Index Symbol   x (angstrom)   y (angstrom)   z (angstrom)
      1     Pa     0.73598149    -0.27748456    -0.00000000
      2      O     0.16347038     1.39133664     0.00000000
      3     Cl     4.10204866     0.03313162     0.00000000
      4     Cl     0.48763878    -3.55830496     0.00000000
      5     Cl    -2.36754363     0.73903161     0.00000000
      6      O     2.34359889     1.90882757     0.00000000
      7      H     1.91539620     2.77429963     0.00000000
      8      H     3.31596316     1.85501371     0.00000000
      9      O     2.67542896    -2.16827355     0.00000000
     10      H     2.39230025    -3.09821904     0.00000000
     11      H     3.61442540    -1.91194040     0.00000000
     12      O    -1.33910399    -1.76892924     0.00000000
     13      H    -1.26071699    -2.74236006     0.00000000
     14      H    -2.19880069    -1.30157975     0.00000000
 
Total System Charge             0.00000
Bonding info available!
 
 *** GO1_GOStep10 ***



 ======================
 RI Hartree-Fock Scheme
 ======================
  
 Fit Set Quality     : GOOD
 Threshold Quality   : GOOD
 Integration Quality : GOOD
 Fit Generation Method : AUTO
 Response Quality    : DEFAULT
 Is Range Separated  :  F
 
 RIHartreeFock Dependency: number of modified vectors:           0
  
 Hartree-Fock exchange energy:   -584.198031414861     

 Energy gradients wrt nuclear displacements
 ==========================================

     Atom      Cartesian (a.u./angstrom)
                 X         Y         Z
 ----------------------------------------
     1 Pa   -0.007719  0.053848  0.000000
     2 O     0.017008  0.000079  0.000000
     3 Cl   -0.022365  0.004967  0.000000
     4 Cl   -0.001894  0.023017  0.000000
     5 Cl    0.010528  0.007314  0.000000
     6 O     0.020006  0.004414  0.000000
     7 H    -0.010625 -0.011376  0.000000
     8 H    -0.012768 -0.009060  0.000000
     9 O     0.033083 -0.037348  0.000000
    10 H    -0.004998  0.012332  0.000000
    11 H    -0.010966 -0.001795  0.000000
    12 O    -0.028259 -0.044173  0.000000
    13 H     0.004619  0.008923  0.000000
    14 H     0.014349 -0.011143  0.000000
 ----------------------------------------
 Mulliken charges used for AMS results%charges...

 dE(predicted):    -0.23148E-02, dE(actual):    -0.40092E-02, Trust radius:    1.000000, all in a.u.
 
----------------------------------------------------------------------
Geometry Convergence after Step  10       (Hartree/Angstrom,Angstrom)
----------------------------------------------------------------------
current energy                               -2.95650310 Hartree
energy change                      -0.00400917     0.00001400    F
constrained gradient max            0.05384747     0.00010000    F
constrained gradient rms            0.01643808     0.00006667    F
gradient max                        0.05384747
gradient rms                        0.01643808
cart. step max                      0.15045709     0.00100000    F
cart. step rms                      0.04519966     0.00066667    F
 
 
--------
Geometry
--------
Formula: H6Cl3O4Pa
Atoms
  Index Symbol   x (angstrom)   y (angstrom)   z (angstrom)
      1     Pa     0.73834098    -0.34464089    -0.00000000
      2      O     0.12752804     1.31933051     0.00000000
      3     Cl     4.22064859     0.06422546     0.00000000
      4     Cl     0.46579425    -3.70876206     0.00000000
      5     Cl    -2.48138729     0.79545457     0.00000000
      6      O     2.34016899     1.95431050     0.00000000
      7      H     1.96488184     2.85075617     0.00000000
      8      H     3.32911131     1.92185054     0.00000000
      9      O     2.67538990    -2.18147994     0.00000000
     10      H     2.41859737    -3.13670688     0.00000000
     11      H     3.62606636    -1.90895890     0.00000000
     12      O    -1.34114789    -1.74780249     0.00000000
     13      H    -1.28965324    -2.73997080     0.00000000
     14      H    -2.21425232    -1.26305658     0.00000000
 
Total System Charge             0.00000
Bonding info available!
 
 *** GO1_GOStep11 ***



 ======================
 RI Hartree-Fock Scheme
 ======================
  
 Fit Set Quality     : GOOD
 Threshold Quality   : GOOD
 Integration Quality : GOOD
 Fit Generation Method : AUTO
 Response Quality    : DEFAULT
 Is Range Separated  :  F
 
 RIHartreeFock Dependency: number of modified vectors:           0
  
 Hartree-Fock exchange energy:   -584.098355493700     

 Energy gradients wrt nuclear displacements
 ==========================================

     Atom      Cartesian (a.u./angstrom)
                 X         Y         Z
 ----------------------------------------
     1 Pa   -0.009597  0.033617  0.000000
     2 O     0.005378  0.022394  0.000000
     3 Cl   -0.004488  0.010094  0.000000
     4 Cl    0.000397  0.001727  0.000000
     5 Cl    0.008461  0.015125  0.000000
     6 O    -0.010179 -0.003214  0.000000
     7 H    -0.006222  0.002071  0.000000
     8 H     0.014323  0.000049  0.000000
     9 O     0.025722 -0.022226  0.000000
    10 H    -0.004797 -0.012398  0.000000
    11 H     0.006942 -0.003288  0.000000
    12 O    -0.019192 -0.024247  0.000000
    13 H    -0.000729 -0.011981  0.000000
    14 H    -0.006018 -0.007721  0.000000
 ----------------------------------------
 Mulliken charges used for AMS results%charges...

 dE(predicted):    -0.74904E-02, dE(actual):    -0.93854E-02, Trust radius:    1.000000, all in a.u.
 
----------------------------------------------------------------------
Geometry Convergence after Step  11       (Hartree/Angstrom,Angstrom)
----------------------------------------------------------------------
current energy                               -2.96588846 Hartree
energy change                      -0.00938536     0.00001400    F
constrained gradient max            0.03361639     0.00010000    F
constrained gradient rms            0.01104931     0.00006667    F
gradient max                        0.03361639
gradient rms                        0.01104931
cart. step max                      0.08213896     0.00100000    F
cart. step rms                      0.02558208     0.00066667    F
 
 
--------
Geometry
--------
Formula: H6Cl3O4Pa
Atoms
  Index Symbol   x (angstrom)   y (angstrom)   z (angstrom)
      1     Pa     0.74484341    -0.39457871    -0.00000000
      2      O     0.09997807     1.25748789     0.00000000
      3     Cl     4.28143095     0.07950084     0.00000000
      4     Cl     0.45449763    -3.79090101     0.00000000
      5     Cl    -2.53779904     0.82414500     0.00000000
      6      O     2.33067261     1.96724634     0.00000000
      7      H     1.99352345     2.88163883     0.00000000
      8      H     3.32502468     1.94882836     0.00000000
      9      O     2.66099525    -2.17667983     0.00000000
     10      H     2.42674659    -3.14402691     0.00000000
     11      H     3.61794230    -1.89987084     0.00000000
     12      O    -1.32226774    -1.72209854     0.00000000
     13      H    -1.29053925    -2.72289446     0.00000000
     14      H    -2.20496205    -1.23324773     0.00000000
 
Total System Charge             0.00000
Bonding info available!
 
 *** GO1_GOStep12 ***



 ======================
 RI Hartree-Fock Scheme
 ======================
  
 Fit Set Quality     : GOOD
 Threshold Quality   : GOOD
 Integration Quality : GOOD
 Fit Generation Method : AUTO
 Response Quality    : DEFAULT
 Is Range Separated  :  F
 
 RIHartreeFock Dependency: number of modified vectors:           0
  
 Hartree-Fock exchange energy:   -584.069074745547     

 Energy gradients wrt nuclear displacements
 ==========================================

     Atom      Cartesian (a.u./angstrom)
                 X         Y         Z
 ----------------------------------------
     1 Pa   -0.015825  0.026452  0.000000
     2 O     0.000590  0.025968  0.000000
     3 Cl    0.002302  0.013397  0.000000
     4 Cl    0.001335 -0.007823  0.000000
     5 Cl    0.010809  0.018341  0.000000
     6 O    -0.022470 -0.010967  0.000000
     7 H    -0.000731  0.007939  0.000000
     8 H     0.022498  0.006938  0.000000
     9 O     0.018681 -0.014177  0.000000
    10 H    -0.001519 -0.019662  0.000000
    11 H     0.012643 -0.006520  0.000000
    12 O    -0.010830 -0.010298  0.000000
    13 H    -0.004422 -0.019206  0.000000
    14 H    -0.013060 -0.010381  0.000000
 ----------------------------------------
 Mulliken charges used for AMS results%charges...

 dE(predicted):    -0.28496E-02, dE(actual):    -0.43110E-02, Trust radius:    1.000000, all in a.u.
 
----------------------------------------------------------------------
Geometry Convergence after Step  12       (Hartree/Angstrom,Angstrom)
----------------------------------------------------------------------
current energy                               -2.97019949 Hartree
energy change                      -0.00431102     0.00001400    F
constrained gradient max            0.02645106     0.00010000    F
constrained gradient rms            0.01154716     0.00006667    F
gradient max                        0.02645106
gradient rms                        0.01154716
cart. step max                      0.12718921     0.00100000    F
cart. step rms                      0.04480891     0.00066667    F
 
 
--------
Geometry
--------
Formula: H6Cl3O4Pa
Atoms
  Index Symbol   x (angstrom)   y (angstrom)   z (angstrom)
      1     Pa     0.76533253    -0.48986850    -0.00000000
      2      O     0.04833064     1.13029868     0.00000000
      3     Cl     4.36731104     0.09836532     0.00000000
      4     Cl     0.43692085    -3.91116763     0.00000000
      5     Cl    -2.61696394     0.86327307     0.00000000
      6      O     2.30490941     1.96901854     0.00000000
      7      H     2.03386517     2.90793239     0.00000000
      8      H     3.30128912     1.97093113     0.00000000
      9      O     2.61462840    -2.15064584     0.00000000
     10      H     2.42446212    -3.13251303     0.00000000
     11      H     3.58094736    -1.87292118     0.00000000
     12      O    -1.25857072    -1.66268665     0.00000000
     13      H    -1.26300308    -2.67180802     0.00000000
     14      H    -2.15937202    -1.17365906     0.00000000
 
Total System Charge             0.00000
Bonding info available!
 
 *** GO1_GOStep13 ***



 ======================
 RI Hartree-Fock Scheme
 ======================
  
 Fit Set Quality     : GOOD
 Threshold Quality   : GOOD
 Integration Quality : GOOD
 Fit Generation Method : AUTO
 Response Quality    : DEFAULT
 Is Range Separated  :  F
 
 RIHartreeFock Dependency: number of modified vectors:           0
  
 Hartree-Fock exchange energy:   -584.063262877604     

 Energy gradients wrt nuclear displacements
 ==========================================

     Atom      Cartesian (a.u./angstrom)
                 X         Y         Z
 ----------------------------------------
     1 Pa   -0.034863  0.009035  0.000000
     2 O    -0.002644  0.023597  0.000000
     3 Cl    0.010194  0.019576  0.000000
     4 Cl    0.001341 -0.020357  0.000000
     5 Cl    0.016604  0.023702  0.000000
     6 O    -0.034455 -0.023392  0.000000
     7 H     0.011198  0.013238  0.000000
     8 H     0.024864  0.019087  0.000000
     9 O     0.000355  0.001946  0.000000
    10 H     0.007272 -0.021561  0.000000
    11 H     0.014633 -0.015586  0.000000
    12 O     0.012583  0.014891  0.000000
    13 H    -0.010186 -0.021846  0.000000
    14 H    -0.016895 -0.022331  0.000000
 ----------------------------------------
 Mulliken charges used for AMS results%charges...
 Rebuilding optimization coordinates

 dE(predicted):    -0.51541E-02, dE(actual):    -0.63912E-02, Trust radius:    1.000000, all in a.u.
 
----------------------------------------------------------------------
Geometry Convergence after Step  13       (Hartree/Angstrom,Angstrom)
----------------------------------------------------------------------
current energy                               -2.97659072 Hartree
energy change                      -0.00639124     0.00001400    F
constrained gradient max            0.03486365     0.00010000    F
constrained gradient rms            0.01491495     0.00006667    F
gradient max                        0.03486365
gradient rms                        0.01491495
cart. step max                      0.06663470     0.00100000    F
cart. step rms                      0.02411461     0.00066667    F
 
 
--------
Geometry
--------
Formula: H6Cl3O4Pa
Atoms
  Index Symbol   x (angstrom)   y (angstrom)   z (angstrom)
      1     Pa     0.78539330    -0.53200008    -0.00000000
      2      O     0.02429946     1.06366399     0.00000000
      3     Cl     4.38212156     0.09225457     0.00000000
      4     Cl     0.43407141    -3.92872304     0.00000000
      5     Cl    -2.63275825     0.85646322     0.00000000
      6      O     2.28970469     1.94866938     0.00000000
      7      H     2.03609277     2.89139404     0.00000000
      8      H     3.28050130     1.94994373     0.00000000
      9      O     2.57984538    -2.12180032     0.00000000
     10      H     2.40702544    -3.10342891     0.00000000
     11      H     3.54887612    -1.84764993     0.00000000
     12      O    -1.20949455    -1.62459399     0.00000000
     13      H    -1.22586182    -2.63080713     0.00000000
     14      H    -2.11972992    -1.13883629     0.00000000
 
Total System Charge             0.00000
Bonding info available!
 
 *** GO1_GOStep14 ***



 ======================
 RI Hartree-Fock Scheme
 ======================
  
 Fit Set Quality     : GOOD
 Threshold Quality   : GOOD
 Integration Quality : GOOD
 Fit Generation Method : AUTO
 Response Quality    : DEFAULT
 Is Range Separated  :  F
 
 RIHartreeFock Dependency: number of modified vectors:           0
  
 Hartree-Fock exchange energy:   -584.100892595617     

 Energy gradients wrt nuclear displacements
 ==========================================

     Atom      Cartesian (a.u./angstrom)
                 X         Y         Z
 ----------------------------------------
     1 Pa   -0.046848 -0.005629  0.000000
     2 O    -0.000992  0.016010  0.000000
     3 Cl    0.010466  0.021815  0.000000
     4 Cl    0.000518 -0.021353  0.000000
     5 Cl    0.022138  0.025051  0.000000
     6 O    -0.028488 -0.023194  0.000000
     7 H     0.014951  0.011720  0.000000
     8 H     0.016475  0.021120  0.000000
     9 O    -0.013182  0.011232  0.000000
    10 H     0.012704 -0.012669  0.000000
    11 H     0.009397 -0.022231  0.000000
    12 O     0.027224  0.025618  0.000000
    13 H    -0.011055 -0.014730  0.000000
    14 H    -0.013308 -0.032760  0.000000
 ----------------------------------------
 Mulliken charges used for AMS results%charges...

 dE(predicted):    -0.28960E-02, dE(actual):    -0.42594E-02, Trust radius:    1.000000, all in a.u.
 
----------------------------------------------------------------------
Geometry Convergence after Step  14       (Hartree/Angstrom,Angstrom)
----------------------------------------------------------------------
current energy                               -2.98085010 Hartree
energy change                      -0.00425938     0.00001400    F
constrained gradient max            0.04684809     0.00010000    F
constrained gradient rms            0.01637515     0.00006667    F
gradient max                        0.04684809
gradient rms                        0.01637515
cart. step max                      0.03917104     0.00100000    F
cart. step rms                      0.01131718     0.00066667    F
 
 
--------
Geometry
--------
Formula: H6Cl3O4Pa
Atoms
  Index Symbol   x (angstrom)   y (angstrom)   z (angstrom)
      1     Pa     0.79165422    -0.51862703    -0.00000000
      2      O     0.03004791     1.07435913     0.00000000
      3     Cl     4.35999993     0.07833603     0.00000000
      4     Cl     0.44014878    -3.88955200     0.00000000
      5     Cl    -2.61867096     0.83063000     0.00000000
      6      O     2.29315321     1.93548375     0.00000000
      7      H     2.02089287     2.87099094     0.00000000
      8      H     3.27983689     1.92623782     0.00000000
      9      O     2.58010055    -2.11429734     0.00000000
     10      H     2.39753481    -3.09080851     0.00000000
     11      H     3.54710910    -1.84046253     0.00000000
     12      O    -1.20862587    -1.62420547     0.00000000
     13      H    -1.21577781    -2.62545254     0.00000000
     14      H    -2.11731675    -1.13808304     0.00000000
 
Total System Charge             0.00000
Bonding info available!
 
 *** GO1_GOStep15 ***



 ======================
 RI Hartree-Fock Scheme
 ======================
  
 Fit Set Quality     : GOOD
 Threshold Quality   : GOOD
 Integration Quality : GOOD
 Fit Generation Method : AUTO
 Response Quality    : DEFAULT
 Is Range Separated  :  F
 
 RIHartreeFock Dependency: number of modified vectors:           0
  
 Hartree-Fock exchange energy:   -584.121557196163     

 Energy gradients wrt nuclear displacements
 ==========================================

     Atom      Cartesian (a.u./angstrom)
                 X         Y         Z
 ----------------------------------------
     1 Pa   -0.044443  0.000758  0.000000
     2 O     0.001004  0.011567  0.000000
     3 Cl    0.007272  0.019951  0.000000
     4 Cl    0.000038 -0.016879  0.000000
     5 Cl    0.024573  0.022361  0.000000
     6 O    -0.019124 -0.016594  0.000000
     7 H     0.011504  0.008882  0.000000
     8 H     0.010816  0.016474  0.000000
     9 O    -0.010640  0.007344  0.000000
    10 H     0.012124 -0.008036  0.000000
    11 H     0.006979 -0.021759  0.000000
    12 O     0.020957  0.018666  0.000000
    13 H    -0.009271 -0.009789  0.000000
    14 H    -0.011789 -0.032946  0.000000
 ----------------------------------------
 Mulliken charges used for AMS results%charges...

 dE(predicted):    -0.16347E-02, dE(actual):    -0.29484E-02, Trust radius:    1.000000, all in a.u.
 Residual max backtransformation error   0.4654E-05
 
----------------------------------------------------------------------
Geometry Convergence after Step  15       (Hartree/Angstrom,Angstrom)
----------------------------------------------------------------------
current energy                               -2.98379854 Hartree
energy change                      -0.00294844     0.00001400    F
constrained gradient max            0.04444304     0.00010000    F
constrained gradient rms            0.01404554     0.00006667    F
gradient max                        0.04444304
gradient rms                        0.01404554
cart. step max                      0.15277093     0.00100000    F
cart. step rms                      0.07042645     0.00066667    F
 
 
--------
Geometry
--------
Formula: H6Cl3O4Pa
Atoms
  Index Symbol   x (angstrom)   y (angstrom)   z (angstrom)
      1     Pa     0.86570011    -0.53026565    -0.00000000
      2      O     0.01264514     1.00169134     0.00000000
      3     Cl     4.30125588    -0.00367030     0.00000000
      4     Cl     0.46282527    -3.73918097     0.00000000
      5     Cl    -2.62270689     0.67965502     0.00000000
      6      O     2.28660485     1.83965502     0.00000000
      7      H     1.95338635     2.74417359     0.00000000
      8      H     3.24841989     1.77346689     0.00000000
      9      O     2.52872901    -2.03006503     0.00000000
     10      H     2.31963349    -2.98683325     0.00000000
     11      H     3.49262063    -1.74869792     0.00000000
     12      O    -1.12331235    -1.54956242     0.00000000
     13      H    -1.10346081    -2.52494607     0.00000000
     14      H    -2.04225371    -1.05087100     0.00000000
 
Total System Charge             0.00000
Bonding info available!
 
 *** GO1_GOStep16 ***



 ======================
 RI Hartree-Fock Scheme
 ======================
  
 Fit Set Quality     : GOOD
 Threshold Quality   : GOOD
 Integration Quality : GOOD
 Fit Generation Method : AUTO
 Response Quality    : DEFAULT
 Is Range Separated  :  F
 
 RIHartreeFock Dependency: number of modified vectors:           0
  
 Hartree-Fock exchange energy:   -584.285403236230     

 Energy gradients wrt nuclear displacements
 ==========================================

     Atom      Cartesian (a.u./angstrom)
                 X         Y         Z
 ----------------------------------------
     1 Pa   -0.032662 -0.014201  0.000000
     2 O     0.015716 -0.015210  0.000000
     3 Cl   -0.010997  0.011409  0.000000
     4 Cl   -0.005370  0.007595  0.000000
     5 Cl    0.044403  0.009492  0.000000
     6 O     0.029867  0.014811  0.000000
     7 H     0.001729 -0.008172  0.000000
     8 H    -0.025875 -0.001826  0.000000
     9 O    -0.033267  0.023738  0.000000
    10 H     0.015960  0.023802  0.000000
    11 H    -0.012924 -0.027484  0.000000
    12 O     0.004096  0.005698  0.000000
    13 H     0.000793  0.022771  0.000000
    14 H     0.008532 -0.052423  0.000000
 ----------------------------------------
 Mulliken charges used for AMS results%charges...

 dE(predicted):    -0.10462E-01, dE(actual):    -0.10698E-01, Trust radius:    1.000000, all in a.u.
 
----------------------------------------------------------------------
Geometry Convergence after Step  16       (Hartree/Angstrom,Angstrom)
----------------------------------------------------------------------
current energy                               -2.99449660 Hartree
energy change                      -0.01069805     0.00001400    F
constrained gradient max            0.05243300     0.00010000    F
constrained gradient rms            0.01745977     0.00006667    F
gradient max                        0.05243300
gradient rms                        0.01745977
cart. step max                      0.06297957     0.00100000    F
cart. step rms                      0.01569210     0.00066667    F
 
 
--------
Geometry
--------
Formula: H6Cl3O4Pa
Atoms
  Index Symbol   x (angstrom)   y (angstrom)   z (angstrom)
      1     Pa     0.88353665    -0.53717179    -0.00000000
      2      O     0.00221043     0.97619126     0.00000000
      3     Cl     4.32941754    -0.01649646     0.00000000
      4     Cl     0.46115017    -3.74105535     0.00000000
      5     Cl    -2.68568646     0.65513297     0.00000000
      6      O     2.28961749     1.83556169     0.00000000
      7      H     1.94649771     2.73512864     0.00000000
      8      H     3.24970018     1.75529727     0.00000000
      9      O     2.53573839    -2.02864620     0.00000000
     10      H     2.31422891    -2.98503437     0.00000000
     11      H     3.49882488    -1.72637132     0.00000000
     12      O    -1.11605982    -1.53230725     0.00000000
     13      H    -1.09151316    -2.50616634     0.00000000
     14      H    -2.03757604    -1.00951352     0.00000000
 
Total System Charge             0.00000
Bonding info available!
 
 *** GO1_GOStep17 ***



 ======================
 RI Hartree-Fock Scheme
 ======================
  
 Fit Set Quality     : GOOD
 Threshold Quality   : GOOD
 Integration Quality : GOOD
 Fit Generation Method : AUTO
 Response Quality    : DEFAULT
 Is Range Separated  :  F
 
 RIHartreeFock Dependency: number of modified vectors:           0
  
 Hartree-Fock exchange energy:   -584.284987564931     

 Energy gradients wrt nuclear displacements
 ==========================================

     Atom      Cartesian (a.u./angstrom)
                 X         Y         Z
 ----------------------------------------
     1 Pa   -0.027166 -0.008869  0.000000
     2 O     0.021794 -0.019967  0.000000
     3 Cl   -0.008785  0.009829  0.000000
     4 Cl   -0.007264  0.005954  0.000000
     5 Cl    0.037672  0.012536  0.000000
     6 O     0.033947  0.023370  0.000000
     7 H    -0.001019 -0.010304  0.000000
     8 H    -0.027710 -0.004747  0.000000
     9 O    -0.032339  0.024084  0.000000
    10 H     0.013684  0.023093  0.000000
    11 H    -0.013248 -0.024891  0.000000
    12 O    -0.006004 -0.000776  0.000000
    13 H     0.003842  0.023993  0.000000
    14 H     0.012596 -0.053304  0.000000
 ----------------------------------------
 Mulliken charges used for AMS results%charges...

 dE(predicted):    -0.30731E-02, dE(actual):    -0.57305E-02, Trust radius:    1.000000, all in a.u.
 
----------------------------------------------------------------------
Geometry Convergence after Step  17       (Hartree/Angstrom,Angstrom)
----------------------------------------------------------------------
current energy                               -3.00022714 Hartree
energy change                      -0.00573054     0.00001400    F
constrained gradient max            0.05332463     0.00010000    F
constrained gradient rms            0.01752099     0.00006667    F
gradient max                        0.05332463
gradient rms                        0.01752099
cart. step max                      0.21228630     0.00100000    F
cart. step rms                      0.05431154     0.00066667    F
 
 
--------
Geometry
--------
Formula: H6Cl3O4Pa
Atoms
  Index Symbol   x (angstrom)   y (angstrom)   z (angstrom)
      1     Pa     0.93597088    -0.54470888    -0.00000000
      2      O    -0.05036347     0.92242362     0.00000000
      3     Cl     4.41467555    -0.06121997     0.00000000
      4     Cl     0.46563432    -3.73430276     0.00000000
      5     Cl    -2.89797277     0.55259078     0.00000000
      6      O     2.29443511     1.81415567     0.00000000
      7      H     1.92436606     2.70394046     0.00000000
      8      H     3.26421220     1.69387527     0.00000000
      9      O     2.58625660    -2.04175383     0.00000000
     10      H     2.31041422    -3.00429468     0.00000000
     11      H     3.54678039    -1.65485879     0.00000000
     12      O    -1.10541205    -1.47209329     0.00000000
     13      H    -1.06280308    -2.45268056     0.00000000
     14      H    -2.04610709    -0.84652381     0.00000000
 
Total System Charge             0.00000
Bonding info available!
 
 *** GO1_GOStep18 ***



 ======================
 RI Hartree-Fock Scheme
 ======================
  
 Fit Set Quality     : GOOD
 Threshold Quality   : GOOD
 Integration Quality : GOOD
 Fit Generation Method : AUTO
 Response Quality    : DEFAULT
 Is Range Separated  :  F
 
 RIHartreeFock Dependency: number of modified vectors:           0
  
 Hartree-Fock exchange energy:   -584.228084544344     

 Energy gradients wrt nuclear displacements
 ==========================================

     Atom      Cartesian (a.u./angstrom)
                 X         Y         Z
 ----------------------------------------
     1 Pa    0.013729 -0.007235  0.000000
     2 O     0.008258 -0.004835  0.000000
     3 Cl   -0.004195  0.002047  0.000000
     4 Cl   -0.011335  0.000915  0.000000
     5 Cl    0.016575  0.018293  0.000000
     6 O     0.020577  0.042897  0.000000
     7 H    -0.009844 -0.009874  0.000000
     8 H    -0.008013 -0.014289  0.000000
     9 O    -0.014463  0.021746  0.000000
    10 H     0.001417  0.002877  0.000000
    11 H    -0.007108 -0.010587  0.000000
    12 O    -0.045128 -0.002225  0.000000
    13 H     0.012060  0.007807  0.000000
    14 H     0.027469 -0.047537  0.000000
 ----------------------------------------
 Mulliken charges used for AMS results%charges...

 dE(predicted):    -0.21886E-01, dE(actual):    -0.19595E-01, Trust radius:    1.000000, all in a.u.
 
----------------------------------------------------------------------
Geometry Convergence after Step  18       (Hartree/Angstrom,Angstrom)
----------------------------------------------------------------------
current energy                               -3.01982258 Hartree
energy change                      -0.01959544     0.00001400    F
constrained gradient max            0.04754205     0.00010000    F
constrained gradient rms            0.01538114     0.00006667    F
gradient max                        0.04754205
gradient rms                        0.01538114
cart. step max                      0.21203572     0.00100000    F
cart. step rms                      0.06618020     0.00066667    F
 
 
--------
Geometry
--------
Formula: H6Cl3O4Pa
Atoms
  Index Symbol   x (angstrom)   y (angstrom)   z (angstrom)
      1     Pa     0.99359206    -0.56757967    -0.00000000
      2      O    -0.11485155     0.82879805     0.00000000
      3     Cl     4.49768209    -0.11388437     0.00000000
      4     Cl     0.47806006    -3.72128270     0.00000000
      5     Cl    -3.11000849     0.39391411     0.00000000
      6      O     2.29337175     1.76621251     0.00000000
      7      H     1.91778114     2.65564079     0.00000000
      8      H     3.26827815     1.61312161     0.00000000
      9      O     2.62366324    -2.03637085     0.00000000
     10      H     2.30155075    -3.00042299     0.00000000
     11      H     3.58408088    -1.56548432     0.00000000
     12      O    -1.07043799    -1.37722815     0.00000000
     13      H    -1.01300637    -2.36348098     0.00000000
     14      H    -2.06966886    -0.63740381     0.00000000
 
Total System Charge             0.00000
Bonding info available!
 
 *** GO1_GOStep19 ***



 ======================
 RI Hartree-Fock Scheme
 ======================
  
 Fit Set Quality     : GOOD
 Threshold Quality   : GOOD
 Integration Quality : GOOD
 Fit Generation Method : AUTO
 Response Quality    : DEFAULT
 Is Range Separated  :  F
 
 RIHartreeFock Dependency: number of modified vectors:           0
  
 Hartree-Fock exchange energy:   -584.222588628913     

 Energy gradients wrt nuclear displacements
 ==========================================

     Atom      Cartesian (a.u./angstrom)
                 X         Y         Z
 ----------------------------------------
     1 Pa    0.068403 -0.022353  0.000000
     2 O    -0.022356 -0.016655  0.000000
     3 Cl   -0.003938 -0.004469  0.000000
     4 Cl   -0.014075 -0.001733  0.000000
     5 Cl    0.010318  0.002854  0.000000
     6 O     0.010784  0.051378  0.000000
     7 H    -0.015050 -0.007338  0.000000
     8 H     0.002949 -0.021399  0.000000
     9 O    -0.007602  0.026988  0.000000
    10 H    -0.004350 -0.005162  0.000000
    11 H    -0.010362 -0.002617  0.000000
    12 O    -0.074281  0.033341  0.000000
    13 H     0.018941 -0.005919  0.000000
    14 H     0.040617 -0.026918  0.000000
 ----------------------------------------
 Mulliken charges used for AMS results%charges...
 Rebuilding optimization coordinates
Bad geometry: could not add a dihedral for atom    5

 dE(predicted):    -0.14703E-01, dE(actual):    -0.11156E-01, Trust radius:    1.000000, all in a.u.
 
----------------------------------------------------------------------
Geometry Convergence after Step  19       (Hartree/Angstrom,Angstrom)
----------------------------------------------------------------------
current energy                               -3.03097906 Hartree
energy change                      -0.01115648     0.00001400    F
constrained gradient max            0.07427797     0.00010000    F
constrained gradient rms            0.02190531     0.00006667    F
gradient max                        0.07427797
gradient rms                        0.02190531
cart. step max                      0.14162894     0.00100000    F
cart. step rms                      0.04151619     0.00066667    F
 
 
--------
Geometry
--------
Formula: H6Cl3O4Pa
Atoms
  Index Symbol   x (angstrom)   y (angstrom)   z (angstrom)
      1     Pa     0.97745470    -0.53403620    -0.00000000
      2      O    -0.14155483     0.88302398     0.00000000
      3     Cl     4.54503857    -0.12525337     0.00000000
      4     Cl     0.49854518    -3.72736239     0.00000000
      5     Cl    -3.25163742     0.31670348     0.00000000
      6      O     2.30900617     1.75362388     0.00000000
      7      H     1.95516613     2.65878431     0.00000000
      8      H     3.29891396     1.61175700     0.00000000
      9      O     2.69780438    -2.08178156     0.00000000
     10      H     2.33888166    -3.04692890     0.00000000
     11      H     3.65503255    -1.54808318     0.00000000
     12      O    -1.10576103    -1.37490204     0.00000000
     13      H    -1.04210921    -2.37299063     0.00000000
     14      H    -2.15469393    -0.53800516     0.00000000
 
Total System Charge             0.00000
Bonding info available!
 
 *** GO1_GOStep20 ***



 ======================
 RI Hartree-Fock Scheme
 ======================
  
 Fit Set Quality     : GOOD
 Threshold Quality   : GOOD
 Integration Quality : GOOD
 Fit Generation Method : AUTO
 Response Quality    : DEFAULT
 Is Range Separated  :  F
 
 RIHartreeFock Dependency: number of modified vectors:           0
  
 Hartree-Fock exchange energy:   -584.125417811417     

 Energy gradients wrt nuclear displacements
 ==========================================

     Atom      Cartesian (a.u./angstrom)
                 X         Y         Z
 ----------------------------------------
     1 Pa    0.072786  0.013122  0.000000
     2 O    -0.040491  0.010853  0.000000
     3 Cl   -0.003563 -0.010199  0.000000
     4 Cl   -0.010689 -0.008345  0.000000
     5 Cl    0.013222 -0.009131  0.000000
     6 O    -0.006130  0.039019  0.000000
     7 H    -0.014576  0.003411  0.000000
     8 H     0.020011 -0.016404  0.000000
     9 O     0.028952 -0.006652  0.000000
    10 H    -0.015321 -0.026418  0.000000
    11 H     0.004866  0.013266  0.000000
    12 O    -0.096397  0.031822  0.000000
    13 H     0.014445 -0.025667  0.000000
    14 H     0.032884 -0.008677  0.000000
 ----------------------------------------
 Mulliken charges used for AMS results%charges...

 dE(predicted):    -0.59182E-02, dE(actual):    -0.44376E-02, Trust radius:    1.000000, all in a.u.
 
----------------------------------------------------------------------
Geometry Convergence after Step  20       (Hartree/Angstrom,Angstrom)
----------------------------------------------------------------------
current energy                               -3.03541669 Hartree
energy change                      -0.00443763     0.00001400    F
constrained gradient max            0.09639705     0.00010000    F
constrained gradient rms            0.02419337     0.00006667    F
gradient max                        0.09639705
gradient rms                        0.02419337
cart. step max                      0.06505870     0.00100000    F
cart. step rms                      0.02727062     0.00066667    F
 
 
--------
Geometry
--------
Formula: H6Cl3O4Pa
Atoms
  Index Symbol   x (angstrom)   y (angstrom)   z (angstrom)
      1     Pa     0.96948897    -0.58114447    -0.00000000
      2      O    -0.12742157     0.82317514     0.00000000
      3     Cl     4.54540283    -0.10660907     0.00000000
      4     Cl     0.48885877    -3.76990880     0.00000000
      5     Cl    -3.22284830     0.36006423     0.00000000
      6      O     2.30191693     1.74934741     0.00000000
      7      H     1.98337608     2.66209747     0.00000000
      8      H     3.27698239     1.62512737     0.00000000
      9      O     2.63274568    -2.03815822     0.00000000
     10      H     2.32592555    -3.00093623     0.00000000
     11      H     3.60132337    -1.55186880     0.00000000
     12      O    -1.05620841    -1.36173248     0.00000000
     13      H    -1.01701697    -2.34771465     0.00000000
     14      H    -2.12243844    -0.58718969     0.00000000
 
Total System Charge             0.00000
Bonding info available!
 
 *** GO1_GOStep21 ***



 ======================
 RI Hartree-Fock Scheme
 ======================
  
 Fit Set Quality     : GOOD
 Threshold Quality   : GOOD
 Integration Quality : GOOD
 Fit Generation Method : AUTO
 Response Quality    : DEFAULT
 Is Range Separated  :  F
 
 RIHartreeFock Dependency: number of modified vectors:           0
  
 Hartree-Fock exchange energy:   -584.207472349783     

 Energy gradients wrt nuclear displacements
 ==========================================

     Atom      Cartesian (a.u./angstrom)
                 X         Y         Z
 ----------------------------------------
     1 Pa    0.046737 -0.017205  0.000000
     2 O    -0.020066 -0.024644  0.000000
     3 Cl    0.000802  0.002908  0.000000
     4 Cl   -0.010847 -0.010857  0.000000
     5 Cl   -0.009023  0.014354  0.000000
     6 O     0.007724  0.034935  0.000000
     7 H    -0.005877 -0.003226  0.000000
     8 H    -0.001742 -0.008901  0.000000
     9 O    -0.009382  0.011061  0.000000
    10 H    -0.003990 -0.001186  0.000000
    11 H    -0.005991 -0.002824  0.000000
    12 O    -0.050655  0.035418  0.000000
    13 H     0.015277 -0.000952  0.000000
    14 H     0.047032 -0.028880  0.000000
 ----------------------------------------
 Mulliken charges used for AMS results%charges...

 dE(predicted):    -0.50374E-02, dE(actual):    -0.27317E-02, Trust radius:    1.000000, all in a.u.
 
----------------------------------------------------------------------
Geometry Convergence after Step  21       (Hartree/Angstrom,Angstrom)
----------------------------------------------------------------------
current energy                               -3.03814836 Hartree
energy change                      -0.00273167     0.00001400    F
constrained gradient max            0.05064918     0.00010000    F
constrained gradient rms            0.01745877     0.00006667    F
gradient max                        0.05064918
gradient rms                        0.01745877
cart. step max                      0.06508637     0.00100000    F
cart. step rms                      0.01980911     0.00066667    F
 
 
--------
Geometry
--------
Formula: H6Cl3O4Pa
Atoms
  Index Symbol   x (angstrom)   y (angstrom)   z (angstrom)
      1     Pa     0.96421312    -0.55786583    -0.00000000
      2      O    -0.12183992     0.86303150     0.00000000
      3     Cl     4.53662918    -0.12684346     0.00000000
      4     Cl     0.50645780    -3.72931258     0.00000000
      5     Cl    -3.25615668     0.29497786     0.00000000
      6      O     2.31513463     1.72245559     0.00000000
      7      H     1.99896458     2.63591147     0.00000000
      8      H     3.29060753     1.59775861     0.00000000
      9      O     2.64652572    -2.03309621     0.00000000
     10      H     2.32624693    -2.99019217     0.00000000
     11      H     3.61681592    -1.53595064     0.00000000
     12      O    -1.06138508    -1.36053455     0.00000000
     13      H    -1.01265556    -2.34394339     0.00000000
     14      H    -2.16947127    -0.56184698     0.00000000
 
Total System Charge             0.00000
Bonding info available!
 
 *** GO1_GOStep22 ***



 ======================
 RI Hartree-Fock Scheme
 ======================
  
 Fit Set Quality     : GOOD
 Threshold Quality   : GOOD
 Integration Quality : GOOD
 Fit Generation Method : AUTO
 Response Quality    : DEFAULT
 Is Range Separated  :  F
 
 RIHartreeFock Dependency: number of modified vectors:           0
  
 Hartree-Fock exchange energy:   -584.217723106102     

 Energy gradients wrt nuclear displacements
 ==========================================

     Atom      Cartesian (a.u./angstrom)
                 X         Y         Z
 ----------------------------------------
     1 Pa    0.049826 -0.001078  0.000000
     2 O    -0.019102 -0.016177  0.000000
     3 Cl   -0.008650 -0.004702  0.000000
     4 Cl   -0.008226 -0.005136  0.000000
     5 Cl    0.011581 -0.005278  0.000000
     6 O     0.007213  0.031255  0.000000
     7 H    -0.004811 -0.003634  0.000000
     8 H    -0.002109 -0.007425  0.000000
     9 O     0.001252  0.001450  0.000000
    10 H    -0.005762 -0.001982  0.000000
    11 H    -0.002534  0.001619  0.000000
    12 O    -0.062926  0.025031  0.000000
    13 H     0.013127 -0.000393  0.000000
    14 H     0.031122 -0.013550  0.000000
 ----------------------------------------
 Mulliken charges used for AMS results%charges...

 dE(predicted):    -0.32448E-02, dE(actual):    -0.50347E-02, Trust radius:    1.000000, all in a.u.
 
----------------------------------------------------------------------
Geometry Convergence after Step  22       (Hartree/Angstrom,Angstrom)
----------------------------------------------------------------------
current energy                               -3.04318311 Hartree
energy change                      -0.00503475     0.00001400    F
constrained gradient max            0.06292550     0.00010000    F
constrained gradient rms            0.01584815     0.00006667    F
gradient max                        0.06292550
gradient rms                        0.01584815
cart. step max                      0.12600679     0.00100000    F
cart. step rms                      0.04004348     0.00066667    F
 
 
--------
Geometry
--------
Formula: H6Cl3O4Pa
Atoms
  Index Symbol   x (angstrom)   y (angstrom)   z (angstrom)
      1     Pa     0.91890832    -0.53175217    -0.00000000
      2      O    -0.11582510     0.94484844     0.00000000
      3     Cl     4.56942293    -0.13449466     0.00000000
      4     Cl     0.54139520    -3.72861083     0.00000000
      5     Cl    -3.38216348     0.21148096     0.00000000
      6      O     2.34178753     1.67861078     0.00000000
      7      H     2.08057872     2.61376506     0.00000000
      8      H     3.32483193     1.58714164     0.00000000
      9      O     2.67620785    -2.03086642     0.00000000
     10      H     2.35996674    -2.98548990     0.00000000
     11      H     3.65408670    -1.51711772     0.00000000
     12      O    -1.06759962    -1.36492658     0.00000000
     13      H    -1.02809869    -2.35199061     0.00000000
     14      H    -2.29341215    -0.51604876     0.00000000
 
Total System Charge             0.00000
Bonding info available!
 
 *** GO1_GOStep23 ***



 ======================
 RI Hartree-Fock Scheme
 ======================
  
 Fit Set Quality     : GOOD
 Threshold Quality   : GOOD
 Integration Quality : GOOD
 Fit Generation Method : AUTO
 Response Quality    : DEFAULT
 Is Range Separated  :  F
 
 RIHartreeFock Dependency: number of modified vectors:           0
  
 Hartree-Fock exchange energy:   -584.195255760959     

 Energy gradients wrt nuclear displacements
 ==========================================

     Atom      Cartesian (a.u./angstrom)
                 X         Y         Z
 ----------------------------------------
     1 Pa    0.032262  0.015593  0.000000
     2 O    -0.018112  0.005351  0.000000
     3 Cl   -0.015753 -0.007015  0.000000
     4 Cl   -0.001079 -0.007130  0.000000
     5 Cl    0.037061 -0.024590  0.000000
     6 O    -0.006042  0.006303  0.000000
     7 H     0.006148  0.003942  0.000000
     8 H     0.002392  0.008405  0.000000
     9 O     0.015427 -0.021129  0.000000
    10 H    -0.008706 -0.005635  0.000000
    11 H     0.006739  0.006839  0.000000
    12 O    -0.055400  0.015298  0.000000
    13 H     0.005977 -0.004898  0.000000
    14 H    -0.000912  0.008666  0.000000
 ----------------------------------------
 Mulliken charges used for AMS results%charges...

 dE(predicted):    -0.57043E-02, dE(actual):    -0.73944E-02, Trust radius:    1.000000, all in a.u.
 
----------------------------------------------------------------------
Geometry Convergence after Step  23       (Hartree/Angstrom,Angstrom)
----------------------------------------------------------------------
current energy                               -3.05057755 Hartree
energy change                      -0.00739444     0.00001400    F
constrained gradient max            0.05539999     0.00010000    F
constrained gradient rms            0.01422369     0.00006667    F
gradient max                        0.05539999
gradient rms                        0.01422369
cart. step max                      0.07508165     0.00100000    F
cart. step rms                      0.02358229     0.00066667    F
 
 
--------
Geometry
--------
Formula: H6Cl3O4Pa
Atoms
  Index Symbol   x (angstrom)   y (angstrom)   z (angstrom)
      1     Pa     0.88269360    -0.52760609    -0.00000000
      2      O    -0.09597836     0.98332096     0.00000000
      3     Cl     4.59484030    -0.13189392     0.00000000
      4     Cl     0.56173245    -3.73802230     0.00000000
      5     Cl    -3.45724512     0.18289460     0.00000000
      6      O     2.36153326     1.64677519     0.00000000
      7      H     2.13704746     2.59140816     0.00000000
      8      H     3.34220815     1.57918281     0.00000000
      9      O     2.66936773    -2.00561996     0.00000000
     10      H     2.37965098    -2.95746368     0.00000000
     11      H     3.65474485    -1.50907865     0.00000000
     12      O    -1.05443402    -1.36604369     0.00000000
     13      H    -1.03253874    -2.35013858     0.00000000
     14      H    -2.36353567    -0.52316565     0.00000000
 
Total System Charge             0.00000
Bonding info available!
 
 *** GO1_GOStep24 ***



 ======================
 RI Hartree-Fock Scheme
 ======================
  
 Fit Set Quality     : GOOD
 Threshold Quality   : GOOD
 Integration Quality : GOOD
 Fit Generation Method : AUTO
 Response Quality    : DEFAULT
 Is Range Separated  :  F
 
 RIHartreeFock Dependency: number of modified vectors:           0
  
 Hartree-Fock exchange energy:   -584.213721253775     

 Energy gradients wrt nuclear displacements
 ==========================================

     Atom      Cartesian (a.u./angstrom)
                 X         Y         Z
 ----------------------------------------
     1 Pa   -0.000244  0.016582  0.000000
     2 O    -0.004934  0.002108  0.000000
     3 Cl   -0.018655 -0.003725  0.000000
     4 Cl    0.003430 -0.008958  0.000000
     5 Cl    0.032291 -0.020251  0.000000
     6 O    -0.005884 -0.006566  0.000000
     7 H     0.015741  0.003388  0.000000
     8 H    -0.005694  0.020467  0.000000
     9 O     0.009928 -0.030331  0.000000
    10 H    -0.005635  0.004048  0.000000
[...]
    11     H      -0.702688  -0.336979  -0.000000
    12     O      -0.000628   0.000262   0.000000
    13     H       0.004567  -0.000039   0.000000
    14     H      -0.006402   0.001796   0.000000
 
 Mode:    38      Frequency (cm-1):     2481.7634     Intensity (km/mol):     5820.9551     Irrep: A'
 Index  Atom      ---- Displacements (x/y/z) ----
     1    Pa       0.000490   0.000231  -0.000000
     2     O      -0.002085   0.000429  -0.000000
     3    Cl      -0.001334   0.000122   0.000000
     4    Cl      -0.000299  -0.000741   0.000000
     5    Cl       0.001464  -0.000742   0.000000
     6     O       0.050354  -0.005464   0.000000
     7     H      -0.005250  -0.034161  -0.000000
     8     H      -0.777229   0.067327  -0.000000
     9     O       0.033331   0.020305  -0.000000
    10     H      -0.009095   0.020243  -0.000000
    11     H      -0.531655  -0.316657   0.000000
    12     O      -0.002144  -0.000267   0.000000
    13     H       0.001768  -0.003642  -0.000000
    14     H      -0.045997   0.023058  -0.000000
 
 Mode:    39      Frequency (cm-1):     2700.5134     Intensity (km/mol):      915.2824     Irrep: A'
 Index  Atom      ---- Displacements (x/y/z) ----
     1    Pa      -0.000238  -0.000125  -0.000000
     2     O      -0.000205   0.001282  -0.000000
     3    Cl       0.000058   0.000023  -0.000000
     4    Cl       0.000120  -0.000246  -0.000000
     5    Cl      -0.026265   0.013203  -0.000000
     6     O       0.002469  -0.000086  -0.000000
     7     H      -0.000684   0.000202   0.000000
     8     H      -0.035024   0.003762   0.000000
     9     O       0.002179   0.001040   0.000000
    10     H      -0.002263   0.000557   0.000000
    11     H      -0.030651  -0.018546   0.000000
    12     O       0.003692   0.000540   0.000000
    13     H       0.005000  -0.008051  -0.000000
    14     H       0.894232  -0.443663   0.000000
 
 Mode:    40      Frequency (cm-1):     3727.1480     Intensity (km/mol):      111.8416     Irrep: A'
 Index  Atom      ---- Displacements (x/y/z) ----
     1    Pa       0.000048   0.000020  -0.000000
     2     O       0.000083  -0.000348   0.000000
     3    Cl      -0.000011   0.000006   0.000000
     4    Cl      -0.000173   0.000358   0.000000
     5    Cl       0.000166  -0.000063  -0.000000
     6     O      -0.000497   0.000954   0.000000
     7     H       0.004759  -0.015861   0.000000
     8     H       0.002794  -0.000027  -0.000000
     9     O       0.000170  -0.001566  -0.000000
    10     H      -0.004455   0.026238   0.000000
    11     H       0.001277   0.000417  -0.000000
    12     O       0.014212   0.060293   0.000000
    13     H      -0.229570  -0.970776  -0.000000
    14     H      -0.006910   0.003327   0.000000
 
 Mode:    41      Frequency (cm-1):     3729.7928     Intensity (km/mol):      111.9191     Irrep: A'
 Index  Atom      ---- Displacements (x/y/z) ----
     1    Pa      -0.000060  -0.000023   0.000000
     2     O       0.000107  -0.000099   0.000000
     3    Cl      -0.000119  -0.000132  -0.000000
     4    Cl       0.000054   0.000298   0.000000
     5    Cl       0.000013  -0.000004   0.000000
     6     O      -0.000004   0.000007  -0.000000
     7     H       0.001027  -0.002739   0.000000
     8     H      -0.000027   0.000534   0.000000
     9     O      -0.008449   0.061693  -0.000000
    10     H       0.160133  -0.984639   0.000000
    11     H      -0.014731   0.006511   0.000000
    12     O       0.000448   0.001760  -0.000000
    13     H      -0.005207  -0.025840  -0.000000
    14     H      -0.000315   0.000168   0.000000
 
 Mode:    42      Frequency (cm-1):     3754.1130     Intensity (km/mol):      144.4592     Irrep: A'
 Index  Atom      ---- Displacements (x/y/z) ----
     1    Pa      -0.000033  -0.000011  -0.000000
     2     O       0.000265  -0.000235  -0.000000
     3    Cl      -0.000128   0.000065   0.000000
     4    Cl       0.000000   0.000051  -0.000000
     5    Cl       0.000035  -0.000019   0.000000
     6     O       0.018395  -0.059537  -0.000000
     7     H      -0.268781   0.960765  -0.000000
     8     H      -0.016678  -0.015475   0.000000
     9     O      -0.000121   0.000226  -0.000000
    10     H       0.000655  -0.002148  -0.000000
    11     H       0.000599   0.000421  -0.000000
    12     O       0.000401   0.001013   0.000000
    13     H      -0.004086  -0.016133  -0.000000
    14     H      -0.001593   0.000785  -0.000000

 Vibrational polarizability tensor (a.u.):
                  X                   Y                   Z
 X            1359.42685           389.68549             0.00000
 Y             389.68549          1007.03089             0.00000
 Z               0.00000             0.00000          2789.69390

 Isotropic =      1718.7    atomic units

PES point character: Geometry corresponds to a stationary point on the PES with >1 imaginary frequencies.




 ============================
 Statistical Thermal Analysis  ***  ideal gas assumed  ***
 ============================
  
 Pressure:                  1.000000 atm.
 Temperature:             298.150000 K



 Moments of Inertia [amu*bohr^2] and principal axis
 ==================================================

        1536.5090       6427.8089       7964.3179
 ------------------------------------------------
          -1.0000         -0.0001          0.0000
           0.0001         -1.0000          0.0000
           0.0000          0.0000          1.0000


 The rotational contribution to the molecular entropy includes
 a term, dependent on the symmetry number sigma. The results 
 reported below were computed using sigma = 1, determined from
 the point group symmetry of the input geometry (C(S)). 
 If this is not the correct symmetry, try symmetrizing the molecule before
 running the calculation (note: linear molecules should be aligned along one
 of the Cartesian axes).
 Contributions from frequencies below 20 1/cm are not included in vibrational sums.
 Their contributions, if any, are reported separately.


     Temp                                                        Transl      Rotat     Vibrat     Total
     ----                                                        ------      -----     ------     -----

     298.15   Entropy (cal/mol-K):                               43.895     32.731     40.741    117.366
              Nuclear Internal Energy (kcal/mol):                 0.889      0.889     51.847     53.625
              Constant Volume Heat Capacity (cal/mol-K):          2.981      2.981     34.987     40.949
          (c) Constant Volume Heat Capacity (cal/mol-K):          2.981      2.981     32.149     38.110

 Contributions from frequencies below 20 1/cm
 Frequency (1/cm):                                   15.455
 Entropy (cal/mol-K):                                 7.146
 Nuclear Internal Energy (kcal/mol):                  0.593
 Constant Volume Heat Capacity (cal/mol-K):           1.986

       Summary of energy terms
                                                   hartree              eV         kcal/mol           kJ/mol
                                      --------------------     -----------       ----------      -----------
      Energy from Engine:               -3.104777254267975        -84.4853         -1948.28         -8151.59
      Nuclear Internal Energy:           0.085456496636443          2.3254            53.62           224.37
  (c) Nuclear Internal Energy:           0.083991366991224          2.2855            52.71           220.52
      Internal Energy U:                -3.019320757631532        -82.1599         -1894.65         -7927.23
      pV/n = RT:                         0.000944186013486          0.0257             0.59             2.48
      Enthalpy H:                       -3.018376571618046        -82.1342         -1894.06         -7924.75
      -T*S:                             -0.055764522988227         -1.5174           -34.99          -146.41
  (c) -T*S:                             -0.055844793748734         -1.5196           -35.04          -146.62
      Gibbs free energy:                -3.074141094606273        -83.6516         -1929.05         -8071.16
 
 
 
  (c) The properties marked with this symbol have been corrected using 'low vibrational frequency free rotor
      interpolation corrections'. For those terms all positive frequencies are used (also ones below 20 1/cm),
      but the contribution to the partition function of small vibrational frequencies is modified as described
      in the following paper:
      S. Grimme, 'Supramolecular Binding Thermodynamics by Dispersion-Corrected Density Functional Theory'
      (Chem. Eur. J. 2012, 18, 9955-9964)
      Configuration: Dampener Frequency          :   100.000 1/cm
                     Dampener Alpha              :     4.000
                     Averaging Moment of Inertia : 1.000E-44 kg m2

--------------
Atomic charges
--------------
  Index   Atom    Charge
      1     Pa    2.0063
      2      O   -0.6298
      3     Cl   -0.5303
      4     Cl   -0.3925
      5     Cl   -0.1811
      6      O   -0.5185
      7      H    0.2305
      8      H    0.2895
      9      O   -0.5128
     10      H    0.2176
     11      H    0.2888
     12      O   -0.6592
     13      H    0.2423
     14      H    0.1493


Dipole moment vector    (Debye):    -1.43670427   -1.44948778   -0.00000000
              magnitude (Debye):     2.04086599


-----------------------
Molecular orbitals info
-----------------------
n orbitals:              291
n spin:                    1

Note: only printing virtual orbitals with
      energy smaller than HOMO + 100. eV

HOMO (eV):              -7.2532
LUMO (eV):              -4.0046
HOMO-LUMO gap (eV):      3.2486

   Index   Energy (eV)    Occupation
     225       88.0831         0.000       
     224       87.2024         0.000       
     223       82.2940         0.000       
     222       79.2381         0.000       
     221       75.8650         0.000       
     220       71.9845         0.000       
     219       71.9836         0.000       
     218       71.5828         0.000       
     217       70.6605         0.000       
     216       69.2356         0.000       
     215       67.9025         0.000       
     214       65.7576         0.000       
     213       64.1727         0.000       
     212       61.7085         0.000       
     211       57.9687         0.000       
     210       56.0706         0.000       
     209       55.1662         0.000       
     208       54.2263         0.000       
     207       51.8692         0.000       
     206       51.6620         0.000       
     205       50.9383         0.000       
     204       49.1808         0.000       
     203       48.8186         0.000       
     202       47.9316         0.000       
     201       47.9154         0.000       
     200       46.8644         0.000       
     199       46.3640         0.000       
     198       46.2630         0.000       
     197       45.4143         0.000       
     196       44.2108         0.000       
     195       44.0482         0.000       
     194       43.7514         0.000       
     193       43.1471         0.000       
     192       41.1413         0.000       
     191       40.2631         0.000       
     190       40.0733         0.000       
     189       39.2435         0.000       
     188       38.3640         0.000       
     187       37.5453         0.000       
     186       37.4817         0.000       
     185       36.3037         0.000       
     184       35.8021         0.000       
     183       34.8971         0.000       
     182       33.4454         0.000       
     181       33.3172         0.000       
     180       32.3805         0.000       
     179       31.5692         0.000       
     178       30.8900         0.000       
     177       30.5876         0.000       
     176       29.3935         0.000       
     175       27.9722         0.000       
     174       27.5497         0.000       
     173       26.7527         0.000       
     172       26.5305         0.000       
     171       25.6702         0.000       
     170       24.6026         0.000       
     169       23.9474         0.000       
     168       23.3090         0.000       
     167       22.7663         0.000       
     166       22.7177         0.000       
     165       21.8416         0.000       
     164       21.6591         0.000       
     163       20.9322         0.000       
     162       20.8483         0.000       
     161       20.5418         0.000       
     160       19.9329         0.000       
     159       19.8718         0.000       
     158       18.5496         0.000       
     157       17.9159         0.000       
     156       17.7843         0.000       
     155       17.4393         0.000       
     154       16.9200         0.000       
     153       16.8480         0.000       
     152       16.1735         0.000       
     151       15.9531         0.000       
     150       15.5160         0.000       
     149       15.4675         0.000       
     148       14.9148         0.000       
     147       14.6689         0.000       
     146       14.6649         0.000       
     145       14.5426         0.000       
     144       14.3098         0.000       
     143       14.2760         0.000       
     142       13.7049         0.000       
     141       13.5605         0.000       
     140       13.4701         0.000       
     139       13.3391         0.000       
     138       13.3299         0.000       
     137       13.1832         0.000       
     136       13.0770         0.000       
     135       12.6714         0.000       
     134       12.5390         0.000       
     133       12.4746         0.000       
     132       11.7140         0.000       
     131       11.4652         0.000       
     130       11.2318         0.000       
     129       10.9906         0.000       
     128       10.7622         0.000       
     127       10.5772         0.000       
     126       10.1757         0.000       
     125        9.7916         0.000       
     124        9.4483         0.000       
     123        9.3832         0.000       
     122        9.0637         0.000       
     121        8.7598         0.000       
     120        7.9708         0.000       
     119        7.6278         0.000       
     118        6.5809         0.000       
     117        5.6920         0.000       
     116        5.0741         0.000       
     115        4.7584         0.000       
     114        4.2066         0.000       
     113        3.8947         0.000       
     112        3.2659         0.000       
     111        2.9229         0.000       
     110        2.0630         0.000       
     109        1.8796         0.000       
     108        1.7500         0.000       
     107        1.6253         0.000       
     106        1.6160         0.000       
     105        1.2107         0.000       
     104        0.7589         0.000       
     103        0.7110         0.000       
     102        0.6177         0.000       
     101       -0.4966         0.000       
     100       -0.5988         0.000       
      99       -1.6113         0.000       
      98       -2.4156         0.000       
      97       -3.0913         0.000       
      96       -3.5521         0.000       
      95       -3.6209         0.000       
      94       -3.7428         0.000       
      93       -3.7831         0.000       
      92       -3.8110         0.000       
      91       -4.0046         0.000 < LUMO
      90       -7.2532         2.000 < HOMO
      89       -7.6226         2.000       
      88       -7.8125         2.000       
      87       -8.4955         2.000       
      86       -8.5003         2.000       
      85       -9.0918         2.000       
      84       -9.4138         2.000       
      83       -9.4227         2.000       
      82      -10.0495         2.000       
      81      -10.3826         2.000       
      80      -10.4563         2.000       
      79      -10.7822         2.000       
      78      -11.0314         2.000       
      77      -11.0446         2.000       
      76      -11.2042         2.000       
      75      -12.3829         2.000       
      74      -13.2514         2.000       
      73      -13.4208         2.000       
      72      -14.4537         2.000       
      71      -15.6870         2.000       
      70      -16.5301         2.000       
      69      -20.5560         2.000       
      68      -21.4473         2.000       
      67      -22.4834         2.000       
      66      -23.0039         2.000       
      65      -25.3964         2.000       
      64      -26.8181         2.000       
      63      -28.8035         2.000       
      62      -28.9810         2.000       
      61      -29.8061         2.000       
      60      -30.8826         2.000       
      59      -51.3608         2.000       
      58     -100.7323         2.000       
      57     -100.7753         2.000       
      56     -100.8268         2.000       
      55     -100.9482         2.000       
      54     -100.9557         2.000       
      53     -194.2016         2.000       
      52     -194.2514         2.000       
      51     -194.2723         2.000       
      50     -195.8074         2.000       
      49     -195.8084         2.000       
      48     -196.0401         2.000       
      47     -196.2219         2.000       
      46     -196.2563         2.000       
      45     -196.2932         2.000       
      44     -207.1459         2.000       
      43     -207.4550         2.000       
      42     -207.5056         2.000       
      41     -257.0416         2.000       
      40     -258.6874         2.000       
      39     -259.0598         2.000       
      38     -305.5978         2.000       
      37     -360.6738         2.000       
      36     -360.6984         2.000       
      35     -360.7568         2.000       
      34     -360.8866         2.000       
      33     -360.8897         2.000       
      32     -361.0510         2.000       
      31     -361.0558         2.000       
      30     -522.7388         2.000       
      29     -522.7451         2.000       
      28     -523.3921         2.000       
      27     -523.4434         2.000       
      26     -711.3353         2.000       
      25     -711.4643         2.000       
      24     -711.5326         2.000       
      23     -711.7265         2.000       
      22     -711.7387         2.000       
      21    -1038.5898         2.000       
      20    -1038.9142         2.000       
      19    -1039.0167         2.000       
      18    -1356.2214         2.000       
      17    -2770.2415         2.000       
      16    -2771.8838         2.000       
      15    -2772.2379         2.000       
      14    -3480.9853         2.000       
      13    -3481.0368         2.000       
      12    -3481.0613         2.000       
      11    -3481.1548         2.000       
      10    -3481.1600         2.000       
       9    -4341.6942         2.000       
       8    -4341.8797         2.000       
       7    -4341.9274         2.000       
       6    -5311.1289         2.000       
       5   -17550.4170         2.000       
       4   -17550.4484         2.000       
       3   -17550.4495         2.000       
       2   -21022.2360         2.000       
       1  -112662.8891         2.000       

PES point character cannot be identified reliably because some modes have a significant rigid character.


AMS application finished. Exiting.
NORMAL TERMINATION
     Total cpu time:   93487.67
  Total system time:    4726.71
 Total elapsed time:   98379.18
