

 Parallel Execution: Process Information
 ==============================================================================
 Rank   Node Name                              NodeID   MyNodeRank  NodeMaster
    0   u-0-11.local                              0          0          0
    1   u-0-11.local                              0          1         -1
    2   u-0-11.local                              1          0          1
    3   u-0-11.local                              1          1         -1
    4   u-0-11.local                              2          0          2
    5   u-0-11.local                              2          1         -1
    6   u-0-11.local                              3          0          3
    7   u-0-11.local                              3          1         -1
 ==============================================================================


May use up to 31250MB of RAM as shared memory on node 1
May use up to 31250MB of RAM as shared memory on node 2
May use up to 31250MB of RAM as shared memory on node 3
May use up to 31200MB of RAM as shared memory on node 0

 *******************************************************************************
 *                                                                             *
 *  --------------------------------                                           *
 *   Amsterdam Modeling Suite (AMS)              2023.101                      *
 *  --------------------------------                                           *
 *                                               r111868 2023-03-31            *
 *                                                                             *
 *                                                                             *
 *                              =================                              *
 *                              |               |                              *
 *                              |     A M S     |                              *
 *                              |               |                              *
 *                              =================                              *
 *                                                                             *
 *                                                                             *
 *   Online information and documentation:  https://www.scm.com/support/       *
 *   E-mail:  support@scm.com   info@scm.com                                   *
 *                                                                             *
 *   Scientific publications using AMS results must be properly referenced     *
 *   See the User Manuals (or the web site) for recommended citations          *
 *   The terms and conditions of the End User License Agreement apply to       *
 *   the use of AMS, https://www.scm.com/license-terms/                        *
 *                                                                             *
 **********************  x86_64_linux_intel / intelmpi  ************************
 
 Licensed to: Dr. Val?rie Vallet / Laboratoire PhLAM UMR 8523 / Villeneuve d'Ascq Cedex / FRANCE 2024-02-19 16:59:55
 SCM User ID: u10325
  
 AMS 2023.101  RunTime: Feb27-2024 09:48:44  ShM Nodes: 4  Procs: 8

 AMS jobname: pao_cl3_3h2o.SR.b3lyp.dzp.opt-freq-solvation
 AMS jobid  : 1929729677

 Start   directory: /home/shaaban/ams/PhD/geometries-exafs/pao_cl3_3h2o/
 Results directory: /home/shaaban/ams/PhD/geometries-exafs/pao_cl3_3h2o/pao_cl3_3h2o.SR.b3lyp.dzp.opt-freq-solvation.results/
 Scratch directory: /state/partition2/shaaban/1008221.phlam-s-sakura/amstmp_pao_cl3_3h2o.SR.b3lyp.dzp.opt-freq-solvation_kid0.1929729677/


 Communication costs MPI_COMM_WORLD:      1.451 usec per message,   0.0114 usec per 8-byte item
 Communication costs for intra-node:      0.417 usec per message,   0.0027 usec per 8-byte item

 RNG seed: 1765371031 -832863333 1069441747 739162314 99120173 1936540389 1547567738 867481059



                      ************************************************************************
                      *  ADF 2023.101  RunTime: Feb27-2024 09:48:45  ShM Nodes: 4  Procs: 8  *
                      ************************************************************************
  

       ***************************
       *  GEOMETRY OPTIMIZATION  *
       ***************************

Optimization Method                    Quasi Newton
Optimization Coordinates               Delocalized Coordinates
Optimize lattice                       F
 
 ------------------------------------------------------
 Convergence criteria (Hartree,Angstrom)
 ------------------------------------------------------
 Maximum gradient               0.000100000000
 Maximum rms gradient           0.000066666667
 Maximum step allowed           0.001000000000
 Maximum rms step allowed       0.000666666667
 Maximum energy change allowe   0.000014000000
 Maximum stress energy allowe   0.000500000000
 
Initial model Hessian                  Automatic Hessian
 
------------------------------------
Quasi-Newton Optimizer Parameters
------------------------------------
Hessian Update Method                  BFGS
Maximum number of steps                  250
First GDIIS cycle                          0
Maximum GDIIS vectors                      0
Trust radius (bohr)                        0.200000
Trust radius varies                        T
Constraints converged at all steps         T
Use projector                              T
 
 Rigid motions settings for: old optimizer
 Atomic rotations (x,y,z):     T T T
 Atomic translations (x,y,z):  T T T
 Tolerance:                   1.000000000000000E-006
 
--------
Geometry
--------
Formula: H6Cl3O4Pa
Atoms
  Index Symbol   x (angstrom)   y (angstrom)   z (angstrom)
      1     Pa     0.68653362    -0.21454176    -0.00000000       adf.R=2.200
      2      O     0.61585555     2.07436729     0.00000000       adf.R=1.517
      3     Cl     3.30540238    -0.13755862     0.00000000       adf.R=1.725
      4     Cl     0.68665774    -2.83454175     0.00000000       adf.R=1.725
      5     Cl    -1.93337097    -0.19218230     0.00000000       adf.R=1.725
      6      O     2.24558942     1.46279095     0.00000000       adf.R=1.517
      7      H     2.09390324     2.41073151     0.00000000       adf.R=1.350
      8      H     3.19354915     1.31122461     0.00000000       adf.R=1.350
      9      O     2.34825618    -1.79022514     0.00000000       adf.R=1.517
     10      H     2.14045789    -2.72746570     0.00000000       adf.R=1.350
     11      H     3.30515118    -1.71307612     0.00000000       adf.R=1.350
     12      O    -1.11835362    -1.62396790     0.00000000       adf.R=1.517
     13      H    -0.91180952    -2.56148566     0.00000000       adf.R=1.350
     14      H    -2.07773537    -1.58952017     0.00000000       adf.R=1.350
 
Total System Charge             0.00000
Bonding info available!
 
 
----------------
ADF Engine Input
----------------
 
 Basis
 Type DZP
 Core None
 End
 XC
 Hybrid B3LYP
 End
 Solvation
 Surf Delley
 Solv name=Water cav0=0.0 cav1=0.0067639
 Charged method=CONJ
 C-Mat POT
 SCF VAR ALL
 CSMRSP
 End
 NumericalQuality Good
 

 Title: *** (NO TITLE) ***

Number of symmetry operators: 2
Schoenflies symbol:           C(S)
 Using automatic Hessian for delocalized coordinates.
 *** GO1_GOStep1 ***

 SOLVATION
-------------------------------------------

  The Delley construction of COSMO surface surface is calculated

       Division Level for Surface Triangles (NDIV)                  3
       Final Division Level for Triangles (NFDIV)                   1
       Radius of the Solvent (RSOL)                           1.93000 angstr
  Dielectric Constant (EPSL)                                 78.39000

       COSMO equation is solved iteratively-               conjugate-gradient

       Maximun of Iterations for Charges (NCIX)                  1000
       Criterion for Charge convergence (CCNV)                1.0E-08

  COSMO charges included variationally in SCF

       COSMO included at every SCF cycle

  Geometry-dependent empirical factor                         0.00000

  C-Matrix calculated in cspmtx

  In cspmtx, C-Matrix calculated using fitted potential

-------------------------------------------



 -------------------------------------------
  COSMO surface
  Area             =          548.302
  Volume           =          948.738
  Number of Points =         1465
 -------------------------------------------



 ======================
 RI Hartree-Fock Scheme
 ======================
  
 Fit Set Quality     : GOOD
 Threshold Quality   : GOOD
 Integration Quality : GOOD
 Fit Generation Method : AUTO
 Response Quality    : DEFAULT
 Is Range Separated  :  F
 
 RIHartreeFock Dependency: number of modified vectors:           0
 cosmo_calcen: 0.5 (esolb+esolc) (Hartrees) =   -0.102817

 Solvation energy (screening term,uncorrected) =    -64.518727 kcal/mol

 Solvation energy (dispersion and cavitation terms) =      1.025282 kcal/mol
 Solvation Energy Contributions (Hartrees)
          esola   esolb+esolc
     0.10281713   -0.20563425
 esol last cycle   -0.10281713
  
 Hartree-Fock exchange energy:   -584.863966846014     
 cosmo_calcen: 0.5 (esolb+esolc) (Hartrees) =   -0.102817

 Solvation energy (screening term,uncorrected) =    -64.518529 kcal/mol

 Solvation energy (dispersion and cavitation terms) =      1.025282 kcal/mol
 Solvation Energy Contributions (Hartrees)
          esola   esolb+esolc
     0.10281681   -0.20563362
 esol last cycle   -0.10281681

 Energy gradients wrt nuclear displacements
 ==========================================

     Atom      Cartesian (a.u./angstrom)
                 X         Y         Z
 ----------------------------------------
     1 Pa   -0.011269 -0.248037  0.000000
     2 O     0.387550  0.032083  0.000000
     3 Cl   -0.466763  0.037114  0.000000
     4 Cl    0.226824  0.347820  0.000000
     5 Cl    0.384930 -0.859249  0.000000
     6 O    -0.103388 -0.208127  0.000000
     7 H     0.038400 -0.042827  0.000000
     8 H    -0.081310 -0.072098  0.000000
     9 O    -0.100769  0.169014  0.000000
    10 H    -0.067980  0.067387  0.000000
    11 H    -0.069535  0.013398  0.000000
    12 O    -0.195714  0.526305  0.000000
    13 H    -0.024310  0.119002  0.000000
    14 H     0.083335  0.118216  0.000000
 ----------------------------------------
 Mulliken charges used for AMS results%charges...
 
----------------------------------------------------------------------
Geometry Convergence after Step   1       (Hartree/Angstrom,Angstrom)
----------------------------------------------------------------------
current energy                               -2.12712798 Hartree
energy change                      -2.12712798     0.00001400    F
constrained gradient max            0.85902855     0.00010000    F
constrained gradient rms            0.21624614     0.00006667    F
gradient max                        0.85902855
gradient rms                        0.21624614
cart. step max                      0.05186010     0.00100000    F
cart. step rms                      0.01543687     0.00066667    F
 
 
--------
Geometry
--------
Formula: H6Cl3O4Pa
Atoms
  Index Symbol   x (angstrom)   y (angstrom)   z (angstrom)
      1     Pa     0.69353541    -0.21856520    -0.00000000       adf.R=2.200
      2      O     0.57332872     2.06106866     0.00000000       adf.R=1.517
      3     Cl     3.33069027    -0.13478132     0.00000000       adf.R=1.725
      4     Cl     0.68081751    -2.85844507     0.00000000       adf.R=1.725
      5     Cl    -1.93897979    -0.14032220     0.00000000       adf.R=1.725
      6      O     2.24440052     1.47447999     0.00000000       adf.R=1.517
      7      H     2.07805848     2.42513653     0.00000000       adf.R=1.350
      8      H     3.20618944     1.32850542     0.00000000       adf.R=1.350
      9      O     2.36296374    -1.80648124     0.00000000       adf.R=1.517
     10      H     2.14946730    -2.75375279     0.00000000       adf.R=1.350
     11      H     3.33015866    -1.72265768     0.00000000       adf.R=1.350
     12      O    -1.12020089    -1.62850558     0.00000000       adf.R=1.517
     13      H    -0.91911519    -2.58025496     0.00000000       adf.R=1.350
     14      H    -2.09122732    -1.57087531     0.00000000       adf.R=1.350
 
Total System Charge             0.00000
Bonding info available!
 
 *** GO1_GOStep2 ***

 SOLVATION
-------------------------------------------

  The Delley construction of COSMO surface surface is calculated

       Division Level for Surface Triangles (NDIV)                  3
       Final Division Level for Triangles (NFDIV)                   1
       Radius of the Solvent (RSOL)                           1.93000 angstr
  Dielectric Constant (EPSL)                                 78.39000

       COSMO equation is solved iteratively-               conjugate-gradient

       Maximun of Iterations for Charges (NCIX)                  1000
       Criterion for Charge convergence (CCNV)                1.0E-08

  COSMO charges included variationally in SCF

       COSMO included at every SCF cycle

  Geometry-dependent empirical factor                         0.00000

  C-Matrix calculated in cspmtx

  In cspmtx, C-Matrix calculated using fitted potential

-------------------------------------------



 -------------------------------------------
  COSMO surface
  Area             =          551.562
  Volume           =          956.343
  Number of Points =         1474
 -------------------------------------------



 ======================
 RI Hartree-Fock Scheme
 ======================
  
 Fit Set Quality     : GOOD
 Threshold Quality   : GOOD
 Integration Quality : GOOD
 Fit Generation Method : AUTO
 Response Quality    : DEFAULT
 Is Range Separated  :  F
 
 RIHartreeFock Dependency: number of modified vectors:           0
 cosmo_calcen: 0.5 (esolb+esolc) (Hartrees) =   -0.102352

 Solvation energy (screening term,uncorrected) =    -64.227019 kcal/mol

 Solvation energy (dispersion and cavitation terms) =      1.031377 kcal/mol
 Solvation Energy Contributions (Hartrees)
          esola   esolb+esolc
     0.10235226   -0.20470452
 esol last cycle   -0.10235226
  
 Hartree-Fock exchange energy:   -584.789109427683     
 cosmo_calcen: 0.5 (esolb+esolc) (Hartrees) =   -0.102352

 Solvation energy (screening term,uncorrected) =    -64.226984 kcal/mol

 Solvation energy (dispersion and cavitation terms) =      1.031377 kcal/mol
 Solvation Energy Contributions (Hartrees)
          esola   esolb+esolc
     0.10235220   -0.20470441
 esol last cycle   -0.10235220

 Energy gradients wrt nuclear displacements
 ==========================================

     Atom      Cartesian (a.u./angstrom)
                 X         Y         Z
 ----------------------------------------
     1 Pa   -0.007145 -0.241323  0.000000
     2 O     0.352481  0.061064  0.000000
     3 Cl   -0.441446  0.029659  0.000000
     4 Cl    0.201179  0.328106  0.000000
     5 Cl    0.341007 -0.782516  0.000000
     6 O    -0.105735 -0.211102  0.000000
     7 H     0.038502 -0.028403  0.000000
     8 H    -0.055630 -0.067951  0.000000
     9 O    -0.106731  0.173234  0.000000
    10 H    -0.064023  0.046874  0.000000
    11 H    -0.046090  0.012699  0.000000
    12 O    -0.140051  0.502186  0.000000
    13 H    -0.012190  0.081084  0.000000
    14 H     0.045873  0.096387  0.000000
 ----------------------------------------
 Mulliken charges used for AMS results%charges...

 dE(predicted):    -0.93103E-01, dE(actual):    -0.96644E-01, Trust radius:    0.400000, all in a.u.
 
----------------------------------------------------------------------
Geometry Convergence after Step   2       (Hartree/Angstrom,Angstrom)
----------------------------------------------------------------------
current energy                               -2.22377161 Hartree
energy change                      -0.09664363     0.00001400    F
constrained gradient max            0.78232098     0.00010000    F
constrained gradient rms            0.19906973     0.00006667    F
gradient max                        0.78232098
gradient rms                        0.19906973
cart. step max                      0.10523776     0.00100000    F
cart. step rms                      0.03085451     0.00066667    F
 
 
--------
Geometry
--------
Formula: H6Cl3O4Pa
Atoms
  Index Symbol   x (angstrom)   y (angstrom)   z (angstrom)
      1     Pa     0.70820907    -0.22712202    -0.00000000       adf.R=2.200
      2      O     0.48833032     2.02007844     0.00000000       adf.R=1.517
      3     Cl     3.38325010    -0.12790409     0.00000000       adf.R=1.725
      4     Cl     0.66892057    -2.90583147     0.00000000       adf.R=1.725
      5     Cl    -1.94540874    -0.03508445     0.00000000       adf.R=1.725
      6      O     2.24086890     1.49750275     0.00000000       adf.R=1.517
      7      H     2.04159477     2.44733020     0.00000000       adf.R=1.350
      8      H     3.22419537     1.36573762     0.00000000       adf.R=1.350
      9      O     2.39419704    -1.84043750     0.00000000       adf.R=1.517
     10      H     2.16924151    -2.80301635     0.00000000       adf.R=1.350
     11      H     3.37579150    -1.74294366     0.00000000       adf.R=1.350
     12      O    -1.12517657    -1.63638966     0.00000000       adf.R=1.517
     13      H    -0.93764507    -2.60661939     0.00000000       adf.R=1.350
     14      H    -2.10628189    -1.53075121     0.00000000       adf.R=1.350
 
Total System Charge             0.00000
Bonding info available!
 
 *** GO1_GOStep3 ***

 SOLVATION
-------------------------------------------

  The Delley construction of COSMO surface surface is calculated

       Division Level for Surface Triangles (NDIV)                  3
       Final Division Level for Triangles (NFDIV)                   1
       Radius of the Solvent (RSOL)                           1.93000 angstr
  Dielectric Constant (EPSL)                                 78.39000

       COSMO equation is solved iteratively-               conjugate-gradient

       Maximun of Iterations for Charges (NCIX)                  1000
       Criterion for Charge convergence (CCNV)                1.0E-08

  COSMO charges included variationally in SCF

       COSMO included at every SCF cycle

  Geometry-dependent empirical factor                         0.00000

  C-Matrix calculated in cspmtx

  In cspmtx, C-Matrix calculated using fitted potential

-------------------------------------------



 -------------------------------------------
  COSMO surface
  Area             =          560.881
  Volume           =          974.720
  Number of Points =         1501
 -------------------------------------------



 ======================
 RI Hartree-Fock Scheme
 ======================
  
 Fit Set Quality     : GOOD
 Threshold Quality   : GOOD
 Integration Quality : GOOD
 Fit Generation Method : AUTO
 Response Quality    : DEFAULT
 Is Range Separated  :  F
 
 RIHartreeFock Dependency: number of modified vectors:           0
 cosmo_calcen: 0.5 (esolb+esolc) (Hartrees) =   -0.101029

 Solvation energy (screening term,uncorrected) =    -63.396624 kcal/mol

 Solvation energy (dispersion and cavitation terms) =      1.048803 kcal/mol
 Solvation Energy Contributions (Hartrees)
          esola   esolb+esolc
     0.10102894   -0.20205788
 esol last cycle   -0.10102894
  
 Hartree-Fock exchange energy:   -584.671986017599     
 cosmo_calcen: 0.5 (esolb+esolc) (Hartrees) =   -0.101029

 Solvation energy (screening term,uncorrected) =    -63.396642 kcal/mol

 Solvation energy (dispersion and cavitation terms) =      1.048803 kcal/mol
 Solvation Energy Contributions (Hartrees)
          esola   esolb+esolc
     0.10102897   -0.20205794
 esol last cycle   -0.10102897

 Energy gradients wrt nuclear displacements
 ==========================================

     Atom      Cartesian (a.u./angstrom)
                 X         Y         Z
 ----------------------------------------
     1 Pa    0.002461 -0.231826  0.000000
     2 O     0.286575  0.109970  0.000000
     3 Cl   -0.395004  0.011709  0.000000
     4 Cl    0.159226  0.292418  0.000000
     5 Cl    0.261424 -0.638395  0.000000
     6 O    -0.101443 -0.205376  0.000000
     7 H     0.036642 -0.010495  0.000000
     8 H    -0.018971 -0.056935  0.000000
     9 O    -0.110859  0.174386  0.000000
    10 H    -0.056432  0.014033  0.000000
    11 H    -0.010024  0.012302  0.000000
    12 O    -0.057152  0.430954  0.000000
    13 H     0.003249  0.030954  0.000000
    14 H     0.000308  0.066299  0.000000
 ----------------------------------------
 Mulliken charges used for AMS results%charges...

 dE(predicted):    -0.16796E+00, dE(actual):    -0.16831E+00, Trust radius:    0.800000, all in a.u.
 
----------------------------------------------------------------------
Geometry Convergence after Step   3       (Hartree/Angstrom,Angstrom)
----------------------------------------------------------------------
current energy                               -2.39208325 Hartree
energy change                      -0.16831164     0.00001400    F
constrained gradient max            0.63825922     0.00010000    F
constrained gradient rms            0.16826115     0.00006667    F
gradient max                        0.63825922
gradient rms                        0.16826115
cart. step max                      0.21024943     0.00100000    F
cart. step rms                      0.06268694     0.00066667    F
 
 
--------
Geometry
--------
Formula: H6Cl3O4Pa
Atoms
  Index Symbol   x (angstrom)   y (angstrom)   z (angstrom)
      1     Pa     0.74095411    -0.24758920    -0.00000000       adf.R=2.200
      2      O     0.32320603     1.88891172     0.00000000       adf.R=1.517
      3     Cl     3.49300021    -0.10776408     0.00000000       adf.R=1.725
      4     Cl     0.64380800    -2.99803577     0.00000000       adf.R=1.725
      5     Cl    -1.93569761     0.17516498     0.00000000       adf.R=1.725
      6      O     2.22883516     1.54111952     0.00000000       adf.R=1.517
      7      H     1.95526817     2.47573955     0.00000000       adf.R=1.350
      8      H     3.24016622     1.44359716     0.00000000       adf.R=1.350
      9      O     2.45929239    -1.90911182     0.00000000       adf.R=1.517
     10      H     2.21068740    -2.88828118     0.00000000       adf.R=1.350
     11      H     3.45304948    -1.78222450     0.00000000       adf.R=1.350
     12      O    -1.13844225    -1.64386150     0.00000000       adf.R=1.517
     13      H    -0.98257682    -2.63272649     0.00000000       adf.R=1.350
     14      H    -2.11146362    -1.44038915     0.00000000       adf.R=1.350
 
Total System Charge             0.00000
Bonding info available!
 
 *** GO1_GOStep4 ***

 SOLVATION
-------------------------------------------

  The Delley construction of COSMO surface surface is calculated

       Division Level for Surface Triangles (NDIV)                  3
       Final Division Level for Triangles (NFDIV)                   1
       Radius of the Solvent (RSOL)                           1.93000 angstr
  Dielectric Constant (EPSL)                                 78.39000

       COSMO equation is solved iteratively-               conjugate-gradient

       Maximun of Iterations for Charges (NCIX)                  1000
       Criterion for Charge convergence (CCNV)                1.0E-08

  COSMO charges included variationally in SCF

       COSMO included at every SCF cycle

  Geometry-dependent empirical factor                         0.00000

  C-Matrix calculated in cspmtx

  In cspmtx, C-Matrix calculated using fitted potential

-------------------------------------------



 -------------------------------------------
  COSMO surface
  Area             =          573.640
  Volume           =         1000.666
  Number of Points =         1522
 -------------------------------------------



 ======================
 RI Hartree-Fock Scheme
 ======================
  
 Fit Set Quality     : GOOD
 Threshold Quality   : GOOD
 Integration Quality : GOOD
 Fit Generation Method : AUTO
 Response Quality    : DEFAULT
 Is Range Separated  :  F
 
 RIHartreeFock Dependency: number of modified vectors:           0
 cosmo_calcen: 0.5 (esolb+esolc) (Hartrees) =   -0.094046

 Solvation energy (screening term,uncorrected) =    -59.014641 kcal/mol

 Solvation energy (dispersion and cavitation terms) =      1.072663 kcal/mol
 Solvation Energy Contributions (Hartrees)
          esola   esolb+esolc
     0.09404581   -0.18809161
 esol last cycle   -0.09404581
  
 Hartree-Fock exchange energy:   -584.508307568940     
 cosmo_calcen: 0.5 (esolb+esolc) (Hartrees) =   -0.094046

 Solvation energy (screening term,uncorrected) =    -59.014793 kcal/mol

 Solvation energy (dispersion and cavitation terms) =      1.072663 kcal/mol
 Solvation Energy Contributions (Hartrees)
          esola   esolb+esolc
     0.09404605   -0.18809210
 esol last cycle   -0.09404605

 Energy gradients wrt nuclear displacements
 ==========================================

     Atom      Cartesian (a.u./angstrom)
                 X         Y         Z
 ----------------------------------------
     1 Pa    0.032424 -0.214658  0.000000
     2 O     0.155080  0.154222  0.000000
     3 Cl   -0.299219 -0.000013  0.000000
     4 Cl    0.098687  0.227276  0.000000
     5 Cl    0.150771 -0.377159  0.000000
     6 O    -0.088295 -0.177497  0.000000
     7 H     0.029422  0.002168  0.000000
     8 H     0.023996 -0.043480  0.000000
     9 O    -0.105038  0.151489  0.000000
    10 H    -0.046871 -0.023122  0.000000
    11 H     0.025119  0.014929  0.000000
    12 O     0.026966  0.267874  0.000000
    13 H     0.018331 -0.011863  0.000000
    14 H    -0.021372  0.029833  0.000000
 ----------------------------------------
 Mulliken charges used for AMS results%charges...
 Rebuilding optimization coordinates

 dE(predicted):    -0.25085E+00, dE(actual):    -0.25081E+00, Trust radius:    1.000000, all in a.u.
 
----------------------------------------------------------------------
Geometry Convergence after Step   4       (Hartree/Angstrom,Angstrom)
----------------------------------------------------------------------
current energy                               -2.64289343 Hartree
energy change                      -0.25081019     0.00001400    F
constrained gradient max            0.37706136     0.00010000    F
constrained gradient rms            0.11602358     0.00006667    F
gradient max                        0.37706136
gradient rms                        0.11602358
cart. step max                      0.21168724     0.00100000    F
cart. step rms                      0.06804697     0.00066667    F
 
 
--------
Geometry
--------
Formula: H6Cl3O4Pa
Atoms
  Index Symbol   x (angstrom)   y (angstrom)   z (angstrom)
      1     Pa     0.77019478    -0.26220074    -0.00000000       adf.R=2.200
      2      O     0.17973645     1.69212386     0.00000000       adf.R=1.517
      3     Cl     3.62090646    -0.07852610     0.00000000       adf.R=1.725
      4     Cl     0.61197047    -3.09975275     0.00000000       adf.R=1.725
      5     Cl    -1.92732908     0.38685222     0.00000000       adf.R=1.725
      6      O     2.22410718     1.60201960     0.00000000       adf.R=1.517
      7      H     1.86494042     2.50966942     0.00000000       adf.R=1.350
      8      H     3.24765341     1.53741844     0.00000000       adf.R=1.350
      9      O     2.53246815    -1.98231207     0.00000000       adf.R=1.517
     10      H     2.25972680    -2.96245529     0.00000000       adf.R=1.350
     11      H     3.52469275    -1.82464250     0.00000000       adf.R=1.350
     12      O    -1.16718265    -1.64917696     0.00000000       adf.R=1.517
     13      H    -1.04361952    -2.64571214     0.00000000       adf.R=1.350
     14      H    -2.11817874    -1.34875576     0.00000000       adf.R=1.350
 
Total System Charge             0.00000
Bonding info available!
 
 *** GO1_GOStep5 ***

 SOLVATION
-------------------------------------------

  The Delley construction of COSMO surface surface is calculated

       Division Level for Surface Triangles (NDIV)                  3
       Final Division Level for Triangles (NFDIV)                   1
       Radius of the Solvent (RSOL)                           1.93000 angstr
  Dielectric Constant (EPSL)                                 78.39000

       COSMO equation is solved iteratively-               conjugate-gradient

       Maximun of Iterations for Charges (NCIX)                  1000
       Criterion for Charge convergence (CCNV)                1.0E-08

  COSMO charges included variationally in SCF

       COSMO included at every SCF cycle

  Geometry-dependent empirical factor                         0.00000

  C-Matrix calculated in cspmtx

  In cspmtx, C-Matrix calculated using fitted potential

-------------------------------------------



 -------------------------------------------
  COSMO surface
  Area             =          584.222
  Volume           =         1021.720
  Number of Points =         1521
 -------------------------------------------



 ======================
 RI Hartree-Fock Scheme
 ======================
  
 Fit Set Quality     : GOOD
 Threshold Quality   : GOOD
 Integration Quality : GOOD
 Fit Generation Method : AUTO
 Response Quality    : DEFAULT
 Is Range Separated  :  F
 
 RIHartreeFock Dependency: number of modified vectors:           0
 cosmo_calcen: 0.5 (esolb+esolc) (Hartrees) =   -0.087620

 Solvation energy (screening term,uncorrected) =    -54.982536 kcal/mol

 Solvation energy (dispersion and cavitation terms) =      1.092450 kcal/mol
 Solvation Energy Contributions (Hartrees)
          esola   esolb+esolc
     0.08762024   -0.17524048
 esol last cycle   -0.08762024
  
 Hartree-Fock exchange energy:   -584.405474349737     
 cosmo_calcen: 0.5 (esolb+esolc) (Hartrees) =   -0.087620

 Solvation energy (screening term,uncorrected) =    -54.982590 kcal/mol

 Solvation energy (dispersion and cavitation terms) =      1.092450 kcal/mol
 Solvation Energy Contributions (Hartrees)
          esola   esolb+esolc
     0.08762033   -0.17524065
 esol last cycle   -0.08762033

 Energy gradients wrt nuclear displacements
 ==========================================

     Atom      Cartesian (a.u./angstrom)
                 X         Y         Z
 ----------------------------------------
     1 Pa    0.061083 -0.184657  0.000000
     2 O     0.019434  0.139343  0.000000
     3 Cl   -0.211525 -0.006518  0.000000
     4 Cl    0.054168  0.169108  0.000000
     5 Cl    0.117640 -0.173978  0.000000
     6 O    -0.066221 -0.135305  0.000000
     7 H     0.011898  0.006407  0.000000
     8 H     0.045401 -0.032447  0.000000
     9 O    -0.080311  0.115496  0.000000
    10 H    -0.040242 -0.040339  0.000000
    11 H     0.037747  0.016936  0.000000
    12 O     0.053482  0.142034  0.000000
    13 H     0.022183 -0.028723  0.000000
    14 H    -0.024736  0.012641  0.000000
 ----------------------------------------
 Mulliken charges used for AMS results%charges...

 dE(predicted):    -0.17788E+00, dE(actual):    -0.17943E+00, Trust radius:    1.000000, all in a.u.
 
----------------------------------------------------------------------
Geometry Convergence after Step   5       (Hartree/Angstrom,Angstrom)
----------------------------------------------------------------------
current energy                               -2.82232541 Hartree
energy change                      -0.17943198     0.00001400    F
constrained gradient max            0.21151772     0.00010000    F
constrained gradient rms            0.07775229     0.00006667    F
gradient max                        0.21151772
gradient rms                        0.07775229
cart. step max                      0.21144066     0.00100000    F
cart. step rms                      0.06339126     0.00066667    F
 
 
--------
Geometry
--------
Formula: H6Cl3O4Pa
Atoms
  Index Symbol   x (angstrom)   y (angstrom)   z (angstrom)
      1     Pa     0.78930256    -0.26905515    -0.00000000       adf.R=2.200
      2      O     0.09653167     1.48068321     0.00000000       adf.R=1.517
      3     Cl     3.75808680    -0.04112372     0.00000000       adf.R=1.725
      4     Cl     0.57451716    -3.20510195     0.00000000       adf.R=1.725
      5     Cl    -1.94756111     0.57264133     0.00000000       adf.R=1.725
      6      O     2.23015163     1.67144246     0.00000000       adf.R=1.517
      7      H     1.79408877     2.54564753     0.00000000       adf.R=1.350
      8      H     3.24946350     1.63658408     0.00000000       adf.R=1.350
      9      O     2.59780731    -2.04658536     0.00000000       adf.R=1.517
     10      H     2.30499769    -3.01683712     0.00000000       adf.R=1.350
     11      H     3.57610642    -1.85970983     0.00000000       adf.R=1.350
     12      O    -1.20664149    -1.65924185     0.00000000       adf.R=1.517
     13      H    -1.10871635    -2.65477059     0.00000000       adf.R=1.350
     14      H    -2.12804767    -1.28002379     0.00000000       adf.R=1.350
 
Total System Charge             0.00000
Bonding info available!
 
 *** GO1_GOStep6 ***

 SOLVATION
-------------------------------------------

  The Delley construction of COSMO surface surface is calculated

       Division Level for Surface Triangles (NDIV)                  3
       Final Division Level for Triangles (NFDIV)                   1
       Radius of the Solvent (RSOL)                           1.93000 angstr
  Dielectric Constant (EPSL)                                 78.39000

       COSMO equation is solved iteratively-               conjugate-gradient

       Maximun of Iterations for Charges (NCIX)                  1000
       Criterion for Charge convergence (CCNV)                1.0E-08

  COSMO charges included variationally in SCF

       COSMO included at every SCF cycle

  Geometry-dependent empirical factor                         0.00000

  C-Matrix calculated in cspmtx

  In cspmtx, C-Matrix calculated using fitted potential

-------------------------------------------



 -------------------------------------------
  COSMO surface
  Area             =          595.523
  Volume           =         1042.171
  Number of Points =         1554
 -------------------------------------------



 ======================
 RI Hartree-Fock Scheme
 ======================
  
 Fit Set Quality     : GOOD
 Threshold Quality   : GOOD
 Integration Quality : GOOD
 Fit Generation Method : AUTO
 Response Quality    : DEFAULT
 Is Range Separated  :  F
 
 RIHartreeFock Dependency: number of modified vectors:           0
 cosmo_calcen: 0.5 (esolb+esolc) (Hartrees) =   -0.087779

 Solvation energy (screening term,uncorrected) =    -55.081913 kcal/mol

 Solvation energy (dispersion and cavitation terms) =      1.113581 kcal/mol
 Solvation Energy Contributions (Hartrees)
          esola   esolb+esolc
     0.08777861   -0.17555721
 esol last cycle   -0.08777861
  
 Hartree-Fock exchange energy:   -584.390010602187     
 cosmo_calcen: 0.5 (esolb+esolc) (Hartrees) =   -0.087779

 Solvation energy (screening term,uncorrected) =    -55.081876 kcal/mol

 Solvation energy (dispersion and cavitation terms) =      1.113581 kcal/mol
 Solvation Energy Contributions (Hartrees)
          esola   esolb+esolc
     0.08777855   -0.17555709
 esol last cycle   -0.08777855

 Energy gradients wrt nuclear displacements
 ==========================================

     Atom      Cartesian (a.u./angstrom)
                 X         Y         Z
 ----------------------------------------
     1 Pa    0.040156 -0.090141  0.000000
     2 O    -0.082267  0.044389  0.000000
     3 Cl   -0.144856 -0.007204  0.000000
     4 Cl    0.024244  0.125143  0.000000
     5 Cl    0.153345 -0.053616  0.000000
     6 O    -0.034135 -0.089713  0.000000
     7 H    -0.007486  0.003554  0.000000
     8 H     0.047392 -0.024419  0.000000
     9 O    -0.044126  0.075758  0.000000
    10 H    -0.034683 -0.041677  0.000000
    11 H     0.030772  0.016660  0.000000
    12 O     0.052851  0.060224  0.000000
    13 H     0.022062 -0.030092  0.000000
    14 H    -0.023269  0.011135  0.000000
 ----------------------------------------
 Mulliken charges used for AMS results%charges...

 dE(predicted):    -0.76424E-01, dE(actual):    -0.10270E+00, Trust radius:    1.000000, all in a.u.
 
----------------------------------------------------------------------
Geometry Convergence after Step   6       (Hartree/Angstrom,Angstrom)
----------------------------------------------------------------------
current energy                               -2.92502134 Hartree
energy change                      -0.10269593     0.00001400    F
constrained gradient max            0.15335066     0.00010000    F
constrained gradient rms            0.05223630     0.00006667    F
gradient max                        0.15335066
gradient rms                        0.05223630
cart. step max                      0.18716109     0.00100000    F
cart. step rms                      0.06057806     0.00066667    F
 
 
--------
Geometry
--------
Formula: H6Cl3O4Pa
Atoms
  Index Symbol   x (angstrom)   y (angstrom)   z (angstrom)
      1     Pa     0.77372982    -0.24121451    -0.00000000       adf.R=2.200
      2      O     0.13553008     1.36007070     0.00000000       adf.R=1.517
      3     Cl     3.90766739    -0.00832269     0.00000000       adf.R=1.725
      4     Cl     0.53284147    -3.31594312     0.00000000       adf.R=1.725
      5     Cl    -2.13472220     0.66541584     0.00000000       adf.R=1.725
      6      O     2.29260921     1.76976573     0.00000000       adf.R=1.517
      7      H     1.82607833     2.62577054     0.00000000       adf.R=1.350
      8      H     3.28897629     1.73985797     0.00000000       adf.R=1.350
      9      O     2.64029538    -2.09317208     0.00000000       adf.R=1.517
     10      H     2.34417635    -3.04016909     0.00000000       adf.R=1.350
     11      H     3.59858804    -1.89143333     0.00000000       adf.R=1.350
     12      O    -1.27272585    -1.70363401     0.00000000       adf.R=1.517
     13      H    -1.17975373    -2.68820863     0.00000000       adf.R=1.350
     14      H    -2.17320370    -1.30423406     0.00000000       adf.R=1.350
 
Total System Charge             0.00000
Bonding info available!
 
 *** GO1_GOStep7 ***

 SOLVATION
-------------------------------------------

  The Delley construction of COSMO surface surface is calculated

       Division Level for Surface Triangles (NDIV)                  3
       Final Division Level for Triangles (NFDIV)                   1
       Radius of the Solvent (RSOL)                           1.93000 angstr
  Dielectric Constant (EPSL)                                 78.39000

       COSMO equation is solved iteratively-               conjugate-gradient

       Maximun of Iterations for Charges (NCIX)                  1000
       Criterion for Charge convergence (CCNV)                1.0E-08

  COSMO charges included variationally in SCF

       COSMO included at every SCF cycle

  Geometry-dependent empirical factor                         0.00000

  C-Matrix calculated in cspmtx

  In cspmtx, C-Matrix calculated using fitted potential

-------------------------------------------



 -------------------------------------------
  COSMO surface
  Area             =          615.848
  Volume           =         1077.176
  Number of Points =         1602
 -------------------------------------------



 ======================
 RI Hartree-Fock Scheme
 ======================
  
 Fit Set Quality     : GOOD
 Threshold Quality   : GOOD
 Integration Quality : GOOD
 Fit Generation Method : AUTO
 Response Quality    : DEFAULT
 Is Range Separated  :  F
 
 RIHartreeFock Dependency: number of modified vectors:           0
 cosmo_calcen: 0.5 (esolb+esolc) (Hartrees) =   -0.101647

 Solvation energy (screening term,uncorrected) =    -63.784283 kcal/mol

 Solvation energy (dispersion and cavitation terms) =      1.151587 kcal/mol
 Solvation Energy Contributions (Hartrees)
          esola   esolb+esolc
     0.10164671   -0.20329343
 esol last cycle   -0.10164672
  
 Hartree-Fock exchange energy:   -584.425704988941     
 cosmo_calcen: 0.5 (esolb+esolc) (Hartrees) =   -0.101647

 Solvation energy (screening term,uncorrected) =    -63.784315 kcal/mol

 Solvation energy (dispersion and cavitation terms) =      1.151587 kcal/mol
 Solvation Energy Contributions (Hartrees)
          esola   esolb+esolc
     0.10164677   -0.20329353
 esol last cycle   -0.10164677

 Energy gradients wrt nuclear displacements
 ==========================================

     Atom      Cartesian (a.u./angstrom)
                 X         Y         Z
 ----------------------------------------
     1 Pa   -0.058917  0.129993  0.000000
     2 O     0.017496 -0.120066  0.000000
     3 Cl   -0.095778 -0.002486  0.000000
     4 Cl    0.004663  0.087258  0.000000
     5 Cl    0.102153 -0.029973  0.000000
     6 O     0.004943 -0.043368  0.000000
     7 H    -0.018696 -0.003129  0.000000
     8 H     0.026464 -0.020228  0.000000
     9 O    -0.002666  0.024562  0.000000
    10 H    -0.022877 -0.019831  0.000000
    11 H     0.008093  0.009762  0.000000
    12 O     0.029179 -0.000043  0.000000
    13 H     0.017144 -0.018052  0.000000
    14 H    -0.011200  0.005603  0.000000
 ----------------------------------------
 Mulliken charges used for AMS results%charges...
 Rebuilding optimization coordinates

 dE(predicted):    -0.63826E-01, dE(actual):    -0.73300E-01, Trust radius:    1.000000, all in a.u.
 
----------------------------------------------------------------------
Geometry Convergence after Step   7       (Hartree/Angstrom,Angstrom)
----------------------------------------------------------------------
current energy                               -2.99832103 Hartree
energy change                      -0.07329968     0.00001400    F
constrained gradient max            0.12999362     0.00010000    F
constrained gradient rms            0.04080442     0.00006667    F
gradient max                        0.12999362
gradient rms                        0.04080442
cart. step max                      0.18159507     0.00100000    F
cart. step rms                      0.05058989     0.00066667    F
 
 
--------
Geometry
--------
Formula: H6Cl3O4Pa
Atoms
  Index Symbol   x (angstrom)   y (angstrom)   z (angstrom)
      1     Pa     0.76712421    -0.23992431    -0.00000000       adf.R=2.200
      2      O     0.15429078     1.35621839     0.00000000       adf.R=1.517
      3     Cl     4.04195124     0.01372570     0.00000000       adf.R=1.725
      4     Cl     0.50248438    -3.43169836     0.00000000       adf.R=1.725
      5     Cl    -2.31631727     0.72296125     0.00000000       adf.R=1.725
      6      O     2.33569051     1.84576849     0.00000000       adf.R=1.517
      7      H     1.87609438     2.69864355     0.00000000       adf.R=1.350
      8      H     3.30643791     1.81499121     0.00000000       adf.R=1.350
      9      O     2.67703081    -2.13915123     0.00000000       adf.R=1.517
     10      H     2.38410437    -3.06481079     0.00000000       adf.R=1.350
     11      H     3.61919826    -1.92322312     0.00000000       adf.R=1.350
     12      O    -1.32570937    -1.73741492     0.00000000       adf.R=1.517
     13      H    -1.23645089    -2.70925372     0.00000000       adf.R=1.350
     14      H    -2.20584244    -1.33228290     0.00000000       adf.R=1.350
 
Total System Charge             0.00000
Bonding info available!
 
 *** GO1_GOStep8 ***

 SOLVATION
-------------------------------------------

  The Delley construction of COSMO surface surface is calculated

       Division Level for Surface Triangles (NDIV)                  3
       Final Division Level for Triangles (NFDIV)                   1
       Radius of the Solvent (RSOL)                           1.93000 angstr
  Dielectric Constant (EPSL)                                 78.39000

       COSMO equation is solved iteratively-               conjugate-gradient

       Maximun of Iterations for Charges (NCIX)                  1000
       Criterion for Charge convergence (CCNV)                1.0E-08

  COSMO charges included variationally in SCF

       COSMO included at every SCF cycle

  Geometry-dependent empirical factor                         0.00000

  C-Matrix calculated in cspmtx

  In cspmtx, C-Matrix calculated using fitted potential

-------------------------------------------



 -------------------------------------------
  COSMO surface
  Area             =          636.921
  Volume           =         1112.158
  Number of Points =         1647
 -------------------------------------------



 ======================
 RI Hartree-Fock Scheme
 ======================
  
 Fit Set Quality     : GOOD
 Threshold Quality   : GOOD
 Integration Quality : GOOD
 Fit Generation Method : AUTO
 Response Quality    : DEFAULT
 Is Range Separated  :  F
 
 RIHartreeFock Dependency: number of modified vectors:           0
 cosmo_calcen: 0.5 (esolb+esolc) (Hartrees) =   -0.119648

 Solvation energy (screening term,uncorrected) =    -75.080275 kcal/mol

 Solvation energy (dispersion and cavitation terms) =      1.190994 kcal/mol
 Solvation Energy Contributions (Hartrees)
          esola   esolb+esolc
     0.11964802   -0.23929604
 esol last cycle   -0.11964802
  
 Hartree-Fock exchange energy:   -584.384492839553     
 cosmo_calcen: 0.5 (esolb+esolc) (Hartrees) =   -0.119648

 Solvation energy (screening term,uncorrected) =    -75.080293 kcal/mol

 Solvation energy (dispersion and cavitation terms) =      1.190994 kcal/mol
 Solvation Energy Contributions (Hartrees)
          esola   esolb+esolc
     0.11964805   -0.23929610
 esol last cycle   -0.11964805

 Energy gradients wrt nuclear displacements
 ==========================================

     Atom      Cartesian (a.u./angstrom)
                 X         Y         Z
 ----------------------------------------
     1 Pa   -0.071134  0.158088  0.000000
     2 O     0.055554 -0.121772  0.000000
     3 Cl   -0.061384  0.001065  0.000000
     4 Cl   -0.002283  0.058196  0.000000
     5 Cl    0.054695 -0.016633  0.000000
     6 O     0.033275 -0.006591  0.000000
     7 H    -0.016309 -0.010495  0.000000
     8 H    -0.008304 -0.016934  0.000000
     9 O     0.025939 -0.021344  0.000000
    10 H    -0.010964  0.009503  0.000000
    11 H    -0.013119  0.003373  0.000000
    12 O    -0.010900 -0.031421  0.000000
    13 H     0.011471  0.000875  0.000000
    14 H     0.013463 -0.005909  0.000000
 ----------------------------------------
 Mulliken charges used for AMS results%charges...

 dE(predicted):    -0.25565E-01, dE(actual):    -0.37237E-01, Trust radius:    1.000000, all in a.u.
 
----------------------------------------------------------------------
Geometry Convergence after Step   8       (Hartree/Angstrom,Angstrom)
----------------------------------------------------------------------
current energy                               -3.03555849 Hartree
energy change                      -0.03723747     0.00001400    F
constrained gradient max            0.15808828     0.00010000    F
constrained gradient rms            0.03880822     0.00006667    F
gradient max                        0.15808828
gradient rms                        0.03880822
cart. step max                      0.06597490     0.00100000    F
cart. step rms                      0.01947472     0.00066667    F
 
 
--------
Geometry
--------
Formula: H6Cl3O4Pa
Atoms
  Index Symbol   x (angstrom)   y (angstrom)   z (angstrom)
      1     Pa     0.76911842    -0.25143514    -0.00000000       adf.R=2.200
      2      O     0.14602542     1.37421260     0.00000000       adf.R=1.517
      3     Cl     4.09674616     0.02246934     0.00000000       adf.R=1.725
      4     Cl     0.49368362    -3.48518347     0.00000000       adf.R=1.725
      5     Cl    -2.38229217     0.74510462     0.00000000       adf.R=1.725
      6      O     2.34199186     1.86775192     0.00000000       adf.R=1.517
      7      H     1.89366010     2.72523960     0.00000000       adf.R=1.350
      8      H     3.31141699     1.84066665     0.00000000       adf.R=1.350
      9      O     2.69135147    -2.15656858     0.00000000       adf.R=1.517
     10      H     2.40176952    -3.08243260     0.00000000       adf.R=1.350
     11      H     3.63343392    -1.93466936     0.00000000       adf.R=1.350
     12      O    -1.34087438    -1.74261649     0.00000000       adf.R=1.517
     13      H    -1.25528688    -2.71309120     0.00000000       adf.R=1.350
     14      H    -2.22065719    -1.33489865     0.00000000       adf.R=1.350
 
Total System Charge             0.00000
Bonding info available!
 
 *** GO1_GOStep9 ***

 SOLVATION
-------------------------------------------

  The Delley construction of COSMO surface surface is calculated

       Division Level for Surface Triangles (NDIV)                  3
       Final Division Level for Triangles (NFDIV)                   1
       Radius of the Solvent (RSOL)                           1.93000 angstr
  Dielectric Constant (EPSL)                                 78.39000

       COSMO equation is solved iteratively-               conjugate-gradient

       Maximun of Iterations for Charges (NCIX)                  1000
       Criterion for Charge convergence (CCNV)                1.0E-08

  COSMO charges included variationally in SCF

       COSMO included at every SCF cycle

  Geometry-dependent empirical factor                         0.00000

  C-Matrix calculated in cspmtx

  In cspmtx, C-Matrix calculated using fitted potential

-------------------------------------------



 -------------------------------------------
  COSMO surface
  Area             =          644.911
  Volume           =         1125.264
  Number of Points =         1664
 -------------------------------------------



 ======================
 RI Hartree-Fock Scheme
 ======================
  
 Fit Set Quality     : GOOD
 Threshold Quality   : GOOD
 Integration Quality : GOOD
 Fit Generation Method : AUTO
 Response Quality    : DEFAULT
 Is Range Separated  :  F
 
 RIHartreeFock Dependency: number of modified vectors:           0
 cosmo_calcen: 0.5 (esolb+esolc) (Hartrees) =   -0.127012

 Solvation energy (screening term,uncorrected) =    -79.701096 kcal/mol

 Solvation energy (dispersion and cavitation terms) =      1.205934 kcal/mol
 Solvation Energy Contributions (Hartrees)
          esola   esolb+esolc
     0.12701177   -0.25402353
 esol last cycle   -0.12701177
  
 Hartree-Fock exchange energy:   -584.322680013552     
 cosmo_calcen: 0.5 (esolb+esolc) (Hartrees) =   -0.127012

 Solvation energy (screening term,uncorrected) =    -79.701056 kcal/mol

 Solvation energy (dispersion and cavitation terms) =      1.205934 kcal/mol
 Solvation Energy Contributions (Hartrees)
          esola   esolb+esolc
     0.12701170   -0.25402341
 esol last cycle   -0.12701170

 Energy gradients wrt nuclear displacements
 ==========================================

     Atom      Cartesian (a.u./angstrom)
                 X         Y         Z
 ----------------------------------------
     1 Pa   -0.046452  0.091907  0.000000
     2 O     0.036606 -0.050558  0.000000
     3 Cl   -0.049777  0.001894  0.000000
     4 Cl   -0.002441  0.046857  0.000000
     5 Cl    0.044820 -0.011858  0.000000
     6 O     0.028846  0.003047  0.000000
     7 H    -0.013471 -0.010602  0.000000
     8 H    -0.010085 -0.014477  0.000000
     9 O     0.029336 -0.028858  0.000000
    10 H    -0.009225  0.010520  0.000000
    11 H    -0.011742  0.002590  0.000000
    12 O    -0.018347 -0.037625  0.000000
    13 H     0.009111  0.004037  0.000000
    14 H     0.012821 -0.006875  0.000000
 ----------------------------------------
 Mulliken charges used for AMS results%charges...

 dE(predicted):    -0.79656E-02, dE(actual):    -0.13475E-01, Trust radius:    1.000000, all in a.u.
 
----------------------------------------------------------------------
Geometry Convergence after Step   9       (Hartree/Angstrom,Angstrom)
----------------------------------------------------------------------
current energy                               -3.04903355 Hartree
energy change                      -0.01347506     0.00001400    F
constrained gradient max            0.09190698     0.00010000    F
constrained gradient rms            0.02529664     0.00006667    F
gradient max                        0.09190698
gradient rms                        0.02529664
cart. step max                      0.21192422     0.00100000    F
cart. step rms                      0.06394330     0.00066667    F
 
 
--------
Geometry
--------
Formula: H6Cl3O4Pa
Atoms
  Index Symbol   x (angstrom)   y (angstrom)   z (angstrom)
      1     Pa     0.77776828    -0.28963435    -0.00000000       adf.R=2.200
      2      O     0.11274546     1.34204859     0.00000000       adf.R=1.517
      3     Cl     4.28575783     0.05999482     0.00000000       adf.R=1.725
      4     Cl     0.46131236    -3.66106964     0.00000000       adf.R=1.725
      5     Cl    -2.59421640     0.84673355     0.00000000       adf.R=1.725
      6      O     2.35775979     1.93580882     0.00000000       adf.R=1.517
      7      H     1.93637320     2.80607640     0.00000000       adf.R=1.350
      8      H     3.32757747     1.93230329     0.00000000       adf.R=1.350
      9      O     2.73716033    -2.20581176     0.00000000       adf.R=1.517
     10      H     2.46039210    -3.13751864     0.00000000       adf.R=1.350
     11      H     3.68108322    -1.96687786     0.00000000       adf.R=1.350
     12      O    -1.38403494    -1.74472920     0.00000000       adf.R=1.517
     13      H    -1.31535755    -2.71773170     0.00000000       adf.R=1.350
     14      H    -2.26423427    -1.32504310     0.00000000       adf.R=1.350
 
Total System Charge             0.00000
Bonding info available!
 
 *** GO1_GOStep10 ***

 SOLVATION
-------------------------------------------

  The Delley construction of COSMO surface surface is calculated

       Division Level for Surface Triangles (NDIV)                  3
       Final Division Level for Triangles (NFDIV)                   1
       Radius of the Solvent (RSOL)                           1.93000 angstr
  Dielectric Constant (EPSL)                                 78.39000

       COSMO equation is solved iteratively-               conjugate-gradient

       Maximun of Iterations for Charges (NCIX)                  1000
       Criterion for Charge convergence (CCNV)                1.0E-08

  COSMO charges included variationally in SCF

       COSMO included at every SCF cycle

  Geometry-dependent empirical factor                         0.00000

  C-Matrix calculated in cspmtx

  In cspmtx, C-Matrix calculated using fitted potential

-------------------------------------------



 -------------------------------------------
  COSMO surface
  Area             =          671.734
  Volume           =         1166.992
  Number of Points =         1702
 -------------------------------------------



 ======================
 RI Hartree-Fock Scheme
 ======================
  
 Fit Set Quality     : GOOD
 Threshold Quality   : GOOD
 Integration Quality : GOOD
 Fit Generation Method : AUTO
 Response Quality    : DEFAULT
 Is Range Separated  :  F
 
 RIHartreeFock Dependency: number of modified vectors:           0
 cosmo_calcen: 0.5 (esolb+esolc) (Hartrees) =   -0.152643

 Solvation energy (screening term,uncorrected) =    -95.784932 kcal/mol

 Solvation energy (dispersion and cavitation terms) =      1.256090 kcal/mol
 Solvation Energy Contributions (Hartrees)
          esola   esolb+esolc
     0.15264299   -0.30528598
 esol last cycle   -0.15264299
  
 Hartree-Fock exchange energy:   -584.212480655854     
 cosmo_calcen: 0.5 (esolb+esolc) (Hartrees) =   -0.152643

 Solvation energy (screening term,uncorrected) =    -95.784890 kcal/mol

 Solvation energy (dispersion and cavitation terms) =      1.256090 kcal/mol
 Solvation Energy Contributions (Hartrees)
          esola   esolb+esolc
     0.15264292   -0.30528584
 esol last cycle   -0.15264292

 Energy gradients wrt nuclear displacements
 ==========================================

     Atom      Cartesian (a.u./angstrom)
                 X         Y         Z
 ----------------------------------------
     1 Pa   -0.033723  0.049783  0.000000
     2 O     0.024726  0.004828  0.000000
     3 Cl   -0.021703  0.004338  0.000000
     4 Cl   -0.002466  0.017718  0.000000
     5 Cl    0.026384 -0.000117  0.000000
     6 O     0.019227  0.019692  0.000000
     7 H    -0.007798 -0.008459  0.000000
     8 H    -0.008537 -0.006572  0.000000
     9 O     0.035653 -0.041897  0.000000
    10 H    -0.006707  0.007038  0.000000
    11 H    -0.004366  0.002075  0.000000
    12 O    -0.031490 -0.046367  0.000000
    13 H     0.004433  0.004141  0.000000
    14 H     0.006367 -0.006200  0.000000
 ----------------------------------------
 Mulliken charges used for AMS results%charges...

 dE(predicted):    -0.18383E-01, dE(actual):    -0.22578E-01, Trust radius:    1.000000, all in a.u.
 
----------------------------------------------------------------------
Geometry Convergence after Step  10       (Hartree/Angstrom,Angstrom)
----------------------------------------------------------------------
current energy                               -3.07161186 Hartree
energy change                      -0.02257831     0.00001400    F
constrained gradient max            0.04978350     0.00010000    F
constrained gradient rms            0.01770376     0.00006667    F
gradient max                        0.04978350
gradient rms                        0.01770376
cart. step max                      0.13415299     0.00100000    F
cart. step rms                      0.04113937     0.00066667    F
 
 
--------
Geometry
--------
Formula: H6Cl3O4Pa
Atoms
  Index Symbol   x (angstrom)   y (angstrom)   z (angstrom)
      1     Pa     0.79055427    -0.32829134    -0.00000000       adf.R=2.200
      2      O     0.07207510     1.29567125     0.00000000       adf.R=1.517
      3     Cl     4.41184254     0.08617251     0.00000000       adf.R=1.725
      4     Cl     0.44273771    -3.77793851     0.00000000       adf.R=1.725
      5     Cl    -2.72836939     0.92186941     0.00000000       adf.R=1.725
      6      O     2.35450421     1.96178905     0.00000000       adf.R=1.517
      7      H     1.95559046     2.84493431     0.00000000       adf.R=1.350
      8      H     3.32974238     1.98222817     0.00000000       adf.R=1.350
      9      O     2.75963533    -2.22695202     0.00000000       adf.R=1.517
     10      H     2.49851772    -3.16860154     0.00000000       adf.R=1.350
     11      H     3.70697119    -1.98337544     0.00000000       adf.R=1.350
     12      O    -1.39328877    -1.72497068     0.00000000       adf.R=1.517
     13      H    -1.34182090    -2.70404754     0.00000000       adf.R=1.350
     14      H    -2.27860498    -1.30393840     0.00000000       adf.R=1.350
 
Total System Charge             0.00000
Bonding info available!
 
 *** GO1_GOStep11 ***

 SOLVATION
-------------------------------------------

  The Delley construction of COSMO surface surface is calculated

       Division Level for Surface Triangles (NDIV)                  3
       Final Division Level for Triangles (NFDIV)                   1
       Radius of the Solvent (RSOL)                           1.93000 angstr
  Dielectric Constant (EPSL)                                 78.39000

       COSMO equation is solved iteratively-               conjugate-gradient

       Maximun of Iterations for Charges (NCIX)                  1000
       Criterion for Charge convergence (CCNV)                1.0E-08

  COSMO charges included variationally in SCF

       COSMO included at every SCF cycle

  Geometry-dependent empirical factor                         0.00000

  C-Matrix calculated in cspmtx

  In cspmtx, C-Matrix calculated using fitted potential

-------------------------------------------



 -------------------------------------------
  COSMO surface
  Area             =          687.001
  Volume           =         1191.015
  Number of Points =         1715
 -------------------------------------------



 ======================
 RI Hartree-Fock Scheme
 ======================
  
 Fit Set Quality     : GOOD
 Threshold Quality   : GOOD
 Integration Quality : GOOD
 Fit Generation Method : AUTO
 Response Quality    : DEFAULT
 Is Range Separated  :  F
 
 RIHartreeFock Dependency: number of modified vectors:           0
 cosmo_calcen: 0.5 (esolb+esolc) (Hartrees) =   -0.170267

 Solvation energy (screening term,uncorrected) =   -106.844081 kcal/mol

 Solvation energy (dispersion and cavitation terms) =      1.284639 kcal/mol
 Solvation Energy Contributions (Hartrees)
          esola   esolb+esolc
     0.17026686   -0.34053373
 esol last cycle   -0.17026686
  
 Hartree-Fock exchange energy:   -584.151347404382     
 cosmo_calcen: 0.5 (esolb+esolc) (Hartrees) =   -0.170267

 Solvation energy (screening term,uncorrected) =   -106.844091 kcal/mol

 Solvation energy (dispersion and cavitation terms) =      1.284639 kcal/mol
 Solvation Energy Contributions (Hartrees)
          esola   esolb+esolc
     0.17026688   -0.34053376
 esol last cycle   -0.17026688

 Energy gradients wrt nuclear displacements
 ==========================================

     Atom      Cartesian (a.u./angstrom)
                 X         Y         Z
 ----------------------------------------
     1 Pa   -0.025047  0.024404  0.000000
     2 O     0.012628  0.033632  0.000000
     3 Cl   -0.009842  0.005421  0.000000
     4 Cl   -0.001422  0.003309  0.000000
     5 Cl    0.020759  0.004150  0.000000
     6 O     0.006144  0.019462  0.000000
     7 H    -0.003556 -0.003158  0.000000
     8 H     0.000725  0.000031  0.000000
     9 O     0.036664 -0.039513  0.000000
    10 H    -0.006326 -0.001290  0.000000
    11 H     0.001155  0.001449  0.000000
    12 O    -0.033497 -0.040135  0.000000
    13 H     0.001826 -0.001885  0.000000
    14 H    -0.000212 -0.005876  0.000000
 ----------------------------------------
 Mulliken charges used for AMS results%charges...
 Rebuilding optimization coordinates

 dE(predicted):    -0.60145E-02, dE(actual):    -0.92635E-02, Trust radius:    1.000000, all in a.u.
 
----------------------------------------------------------------------
Geometry Convergence after Step  11       (Hartree/Angstrom,Angstrom)
----------------------------------------------------------------------
current energy                               -3.08087534 Hartree
energy change                      -0.00926347     0.00001400    F
constrained gradient max            0.04014238     0.00010000    F
constrained gradient rms            0.01485290     0.00006667    F
gradient max                        0.04014238
gradient rms                        0.01485290
cart. step max                      0.15787014     0.00100000    F
cart. step rms                      0.05202963     0.00066667    F
 
 
--------
Geometry
--------
Formula: H6Cl3O4Pa
Atoms
  Index Symbol   x (angstrom)   y (angstrom)   z (angstrom)
      1     Pa     0.81484118    -0.39025768    -0.00000000       adf.R=2.200
      2      O     0.00191765     1.19743866     0.00000000       adf.R=1.517
      3     Cl     4.56836491     0.11939279     0.00000000       adf.R=1.725
      4     Cl     0.42206861    -3.91920410     0.00000000       adf.R=1.725
      5     Cl    -2.88623953     1.02299486     0.00000000       adf.R=1.725
      6      O     2.33655577     1.96798116     0.00000000       adf.R=1.517
      7      H     1.96574770     2.86641083     0.00000000       adf.R=1.350
      8      H     3.31522588     2.02369478     0.00000000       adf.R=1.350
      9      O     2.77705597    -2.23645803     0.00000000       adf.R=1.517
     10      H     2.54539833    -3.19081521     0.00000000       adf.R=1.350
     11      H     3.72842315    -1.99357735     0.00000000       adf.R=1.350
     12      O    -1.37922489    -1.67471139     0.00000000       adf.R=1.517
     13      H    -1.35808087    -2.66093205     0.00000000       adf.R=1.350
     14      H    -2.27196700    -1.25740804     0.00000000       adf.R=1.350
 
Total System Charge             0.00000
Bonding info available!
 
 *** GO1_GOStep12 ***

 SOLVATION
-------------------------------------------

  The Delley construction of COSMO surface surface is calculated

       Division Level for Surface Triangles (NDIV)                  3
       Final Division Level for Triangles (NFDIV)                   1
       Radius of the Solvent (RSOL)                           1.93000 angstr
  Dielectric Constant (EPSL)                                 78.39000

       COSMO equation is solved iteratively-               conjugate-gradient

       Maximun of Iterations for Charges (NCIX)                  1000
       Criterion for Charge convergence (CCNV)                1.0E-08

  COSMO charges included variationally in SCF

       COSMO included at every SCF cycle

  Geometry-dependent empirical factor                         0.00000

  C-Matrix calculated in cspmtx

  In cspmtx, C-Matrix calculated using fitted potential

-------------------------------------------



 -------------------------------------------
  COSMO surface
  Area             =          703.286
  Volume           =         1211.999
  Number of Points =         1748
 -------------------------------------------



 ======================
 RI Hartree-Fock Scheme
 ======================
  
 Fit Set Quality     : GOOD
 Threshold Quality   : GOOD
 Integration Quality : GOOD
 Fit Generation Method : AUTO
 Response Quality    : DEFAULT
 Is Range Separated  :  F
 
 RIHartreeFock Dependency: number of modified vectors:           0
 cosmo_calcen: 0.5 (esolb+esolc) (Hartrees) =   -0.192067

 Solvation energy (screening term,uncorrected) =   -120.523736 kcal/mol

 Solvation energy (dispersion and cavitation terms) =      1.315090 kcal/mol
 Solvation Energy Contributions (Hartrees)
          esola   esolb+esolc
     0.19206678   -0.38413356
 esol last cycle   -0.19206678
  
 Hartree-Fock exchange energy:   -584.107253344023     
 cosmo_calcen: 0.5 (esolb+esolc) (Hartrees) =   -0.192067

 Solvation energy (screening term,uncorrected) =   -120.523764 kcal/mol

 Solvation energy (dispersion and cavitation terms) =      1.315090 kcal/mol
 Solvation Energy Contributions (Hartrees)
          esola   esolb+esolc
     0.19206682   -0.38413365
 esol last cycle   -0.19206682

 Energy gradients wrt nuclear displacements
 ==========================================

     Atom      Cartesian (a.u./angstrom)
                 X         Y         Z
 ----------------------------------------
     1 Pa   -0.018509  0.008801  0.000000
     2 O     0.000374  0.048082  0.000000
     3 Cl   -0.000385  0.006215  0.000000
     4 Cl   -0.000321 -0.011030  0.000000
     5 Cl    0.016881  0.007068  0.000000
     6 O    -0.005011  0.013760  0.000000
     7 H     0.003251  0.003099  0.000000
     8 H     0.006861  0.009468  0.000000
     9 O     0.035709 -0.033359  0.000000
    10 H    -0.003770 -0.008556  0.000000
    11 H     0.004762 -0.001180  0.000000
    12 O    -0.032367 -0.026012  0.000000
    13 H    -0.001428 -0.008354  0.000000
    14 H    -0.006046 -0.008004  0.000000
 ----------------------------------------
 Mulliken charges used for AMS results%charges...

 dE(predicted):    -0.63830E-02, dE(actual):    -0.10200E-01, Trust radius:    1.000000, all in a.u.
 
----------------------------------------------------------------------
Geometry Convergence after Step  12       (Hartree/Angstrom,Angstrom)
----------------------------------------------------------------------
current energy                               -3.09107511 Hartree
energy change                      -0.01019977     0.00001400    F
constrained gradient max            0.04807459     0.00010000    F
constrained gradient rms            0.01379697     0.00006667    F
gradient max                        0.04807459
gradient rms                        0.01379697
cart. step max                      0.05530002     0.00100000    F
cart. step rms                      0.02106087     0.00066667    F
 
 
--------
Geometry
--------
Formula: H6Cl3O4Pa
Atoms
  Index Symbol   x (angstrom)   y (angstrom)   z (angstrom)
      1     Pa     0.82851460    -0.41935852    -0.00000000       adf.R=2.200
      2      O    -0.03254740     1.14213863     0.00000000       adf.R=1.517
      3     Cl     4.62187756     0.12962625     0.00000000       adf.R=1.725
      4     Cl     0.41681525    -3.96297254     0.00000000       adf.R=1.725
      5     Cl    -2.93556329     1.05910579     0.00000000       adf.R=1.725
      6      O     2.32278176     1.95377709     0.00000000       adf.R=1.517
      7      H     1.95803603     2.85547443     0.00000000       adf.R=1.350
      8      H     3.30089199     2.02318692     0.00000000       adf.R=1.350
      9      O     2.77603818    -2.22883484     0.00000000       adf.R=1.517
     10      H     2.55961256    -3.18710155     0.00000000       adf.R=1.350
     11      H     3.72885771    -1.98981116     0.00000000       adf.R=1.350
     12      O    -1.35845549    -1.64229311     0.00000000       adf.R=1.517
     13      H    -1.35281870    -2.62951875     0.00000000       adf.R=1.350
     14      H    -2.25395389    -1.22886942     0.00000000       adf.R=1.350
 
Total System Charge             0.00000
Bonding info available!
 
 *** GO1_GOStep13 ***

 SOLVATION
-------------------------------------------

  The Delley construction of COSMO surface surface is calculated

       Division Level for Surface Triangles (NDIV)                  3
       Final Division Level for Triangles (NFDIV)                   1
       Radius of the Solvent (RSOL)                           1.93000 angstr
  Dielectric Constant (EPSL)                                 78.39000

       COSMO equation is solved iteratively-               conjugate-gradient

       Maximun of Iterations for Charges (NCIX)                  1000
       Criterion for Charge convergence (CCNV)                1.0E-08

  COSMO charges included variationally in SCF

       COSMO included at every SCF cycle

  Geometry-dependent empirical factor                         0.00000

  C-Matrix calculated in cspmtx

  In cspmtx, C-Matrix calculated using fitted potential

-------------------------------------------



 -------------------------------------------
  COSMO surface
  Area             =          707.030
  Volume           =         1213.687
  Number of Points =         1749
 -------------------------------------------



 ======================
 RI Hartree-Fock Scheme
 ======================
  
 Fit Set Quality     : GOOD
 Threshold Quality   : GOOD
 Integration Quality : GOOD
 Fit Generation Method : AUTO
 Response Quality    : DEFAULT
 Is Range Separated  :  F
 
 RIHartreeFock Dependency: number of modified vectors:           0
 cosmo_calcen: 0.5 (esolb+esolc) (Hartrees) =   -0.198798

 Solvation energy (screening term,uncorrected) =   -124.747685 kcal/mol

 Solvation energy (dispersion and cavitation terms) =      1.322091 kcal/mol
 Solvation Energy Contributions (Hartrees)
          esola   esolb+esolc
     0.19879807   -0.39759614
 esol last cycle   -0.19879807
  
 Hartree-Fock exchange energy:   -584.106749725368     
 cosmo_calcen: 0.5 (esolb+esolc) (Hartrees) =   -0.198798

 Solvation energy (screening term,uncorrected) =   -124.747706 kcal/mol

 Solvation energy (dispersion and cavitation terms) =      1.322091 kcal/mol
 Solvation Energy Contributions (Hartrees)
          esola   esolb+esolc
     0.19879810   -0.39759621
 esol last cycle   -0.19879810

 Energy gradients wrt nuclear displacements
 ==========================================

     Atom      Cartesian (a.u./angstrom)
                 X         Y         Z
 ----------------------------------------
     1 Pa   -0.019114  0.007971  0.000000
     2 O    -0.002310  0.045266  0.000000
     3 Cl    0.001647  0.006286  0.000000
     4 Cl   -0.000089 -0.014960  0.000000
     5 Cl    0.016320  0.007649  0.000000
     6 O    -0.006407  0.011546  0.000000
     7 H     0.005791  0.004649  0.000000
     8 H     0.006279  0.012547  0.000000
     9 O     0.034132 -0.030593  0.000000
    10 H    -0.001253 -0.008504  0.000000
    11 H     0.004303 -0.003786  0.000000
    12 O    -0.029989 -0.018984  0.000000
    13 H    -0.002894 -0.008097  0.000000
    14 H    -0.006417 -0.010989  0.000000
 ----------------------------------------
 Mulliken charges used for AMS results%charges...

 dE(predicted):    -0.29628E-02, dE(actual):    -0.55095E-02, Trust radius:    1.000000, all in a.u.
 
----------------------------------------------------------------------
Geometry Convergence after Step  13       (Hartree/Angstrom,Angstrom)
----------------------------------------------------------------------
current energy                               -3.09658457 Hartree
energy change                      -0.00550946     0.00001400    F
constrained gradient max            0.04526158     0.00010000    F
constrained gradient rms            0.01309648     0.00006667    F
gradient max                        0.04526158
gradient rms                        0.01309648
cart. step max                      0.21086064     0.00100000    F
cart. step rms                      0.07591386     0.00066667    F
 
 
--------
Geometry
--------
Formula: H6Cl3O4Pa
Atoms
  Index Symbol   x (angstrom)   y (angstrom)   z (angstrom)
      1     Pa     0.88135025    -0.51481433    -0.00000000       adf.R=2.200
      2      O    -0.15363152     0.93127800     0.00000000       adf.R=1.517
      3     Cl     4.72315298     0.14056017     0.00000000       adf.R=1.725
      4     Cl     0.41688271    -4.02332707     0.00000000       adf.R=1.725
      5     Cl    -3.01385955     1.12456838     0.00000000       adf.R=1.725
      6      O     2.26016443     1.84150377     0.00000000       adf.R=1.517
      7      H     1.89192150     2.74341853     0.00000000       adf.R=1.350
      8      H     3.23512244     1.94863335     0.00000000       adf.R=1.350
      9      O     2.73191194    -2.15429899     0.00000000       adf.R=1.517
     10      H     2.57018411    -3.12146725     0.00000000       adf.R=1.350
     11      H     3.69299025    -1.94393304     0.00000000       adf.R=1.350
     12      O    -1.23304259    -1.50089065     0.00000000       adf.R=1.517
     13      H    -1.28042051    -2.48584178     0.00000000       adf.R=1.350
     14      H    -2.14263956    -1.11083986     0.00000000       adf.R=1.350
 
Total System Charge             0.00000
Bonding info available!
 
 *** GO1_GOStep14 ***

 SOLVATION
-------------------------------------------

  The Delley construction of COSMO surface surface is calculated

       Division Level for Surface Triangles (NDIV)                  3
       Final Division Level for Triangles (NFDIV)                   1
       Radius of the Solvent (RSOL)                           1.93000 angstr
  Dielectric Constant (EPSL)                                 78.39000

       COSMO equation is solved iteratively-               conjugate-gradient

       Maximun of Iterations for Charges (NCIX)                  1000
       Criterion for Charge convergence (CCNV)                1.0E-08

  COSMO charges included variationally in SCF

       COSMO included at every SCF cycle

  Geometry-dependent empirical factor                         0.00000

  C-Matrix calculated in cspmtx

  In cspmtx, C-Matrix calculated using fitted potential

-------------------------------------------



 -------------------------------------------
  COSMO surface
  Area             =          706.634
  Volume           =         1199.097
  Number of Points =         1750
 -------------------------------------------



 ======================
 RI Hartree-Fock Scheme
 ======================
  
 Fit Set Quality     : GOOD
 Threshold Quality   : GOOD
 Integration Quality : GOOD
 Fit Generation Method : AUTO
 Response Quality    : DEFAULT
 Is Range Separated  :  F
 
 RIHartreeFock Dependency: number of modified vectors:           0
 cosmo_calcen: 0.5 (esolb+esolc) (Hartrees) =   -0.206082

 Solvation energy (screening term,uncorrected) =   -129.318723 kcal/mol

 Solvation energy (dispersion and cavitation terms) =      1.321350 kcal/mol
 Solvation Energy Contributions (Hartrees)
          esola   esolb+esolc
     0.20608248   -0.41216496
 esol last cycle   -0.20608248
  
 Hartree-Fock exchange energy:   -584.158912678951     
 cosmo_calcen: 0.5 (esolb+esolc) (Hartrees) =   -0.206082

 Solvation energy (screening term,uncorrected) =   -129.318719 kcal/mol

 Solvation energy (dispersion and cavitation terms) =      1.321350 kcal/mol
 Solvation Energy Contributions (Hartrees)
          esola   esolb+esolc
     0.20608247   -0.41216495
 esol last cycle   -0.20608247

 Energy gradients wrt nuclear displacements
 ==========================================

     Atom      Cartesian (a.u./angstrom)
                 X         Y         Z
 ----------------------------------------
     1 Pa   -0.031239 -0.008122  0.000000
     2 O    -0.011539  0.018074  0.000000
     3 Cl    0.003110  0.005979  0.000000
     4 Cl    0.000486 -0.021624  0.000000
     5 Cl    0.017569  0.008832  0.000000
     6 O    -0.004916  0.006522  0.000000
     7 H     0.010557  0.007573  0.000000
     8 H     0.002710  0.018613  0.000000
     9 O     0.014387 -0.010988  0.000000
    10 H     0.011470 -0.000575  0.000000
    11 H    -0.000076 -0.018080  0.000000
    12 O     0.002095  0.018948  0.000000
    13 H    -0.007806  0.000904  0.000000
    14 H    -0.006809 -0.026057  0.000000
 ----------------------------------------
 Mulliken charges used for AMS results%charges...

 dE(predicted):    -0.20800E-01, dE(actual):    -0.19477E-01, Trust radius:    1.000000, all in a.u.
 
----------------------------------------------------------------------
Geometry Convergence after Step  14       (Hartree/Angstrom,Angstrom)
----------------------------------------------------------------------
current energy                               -3.11606136 Hartree
energy change                      -0.01947679     0.00001400    F
constrained gradient max            0.03123938     0.00010000    F
constrained gradient rms            0.01083184     0.00006667    F
gradient max                        0.03123938
gradient rms                        0.01083184
cart. step max                      0.11860235     0.00100000    F
cart. step rms                      0.05570954     0.00066667    F
 
 
--------
Geometry
--------
Formula: H6Cl3O4Pa
Atoms
  Index Symbol   x (angstrom)   y (angstrom)   z (angstrom)
      1     Pa     0.91557915    -0.54990922    -0.00000000       adf.R=2.200
      2      O    -0.20512241     0.82338809     0.00000000       adf.R=1.517
      3     Cl     4.71177398     0.12157467     0.00000000       adf.R=1.725
      4     Cl     0.43160689    -3.96916377     0.00000000       adf.R=1.725
      5     Cl    -2.99231235     1.09475715     0.00000000       adf.R=1.725
      6      O     2.22418148     1.73454826     0.00000000       adf.R=1.517
      7      H     1.83059884     2.62481618     0.00000000       adf.R=1.350
      8      H     3.19597358     1.85044907     0.00000000       adf.R=1.350
      9      O     2.67594533    -2.07432137     0.00000000       adf.R=1.517
     10      H     2.53613273    -3.04388938     0.00000000       adf.R=1.350
     11      H     3.64498474    -1.89041445     0.00000000       adf.R=1.350
[...]
    11     H      -0.010551  -0.004882  -0.000000
    12     O       0.048875  -0.042572  -0.000000
    13     H      -0.000723  -0.045177   0.000000
    14     H      -0.764564   0.639514   0.000000
 
 Mode:    38      Frequency (cm-1):     2954.8539     Intensity (km/mol):     1292.5256     Irrep: A'
 Index  Atom      ---- Displacements (x/y/z) ----
     1    Pa      -0.000173   0.000211  -0.000000
     2     O      -0.000088  -0.000620  -0.000000
     3    Cl       0.000302   0.001625  -0.000000
     4    Cl       0.000247   0.000210  -0.000000
     5    Cl       0.000002  -0.000003   0.000000
     6     O       0.029558  -0.002187   0.000000
     7     H       0.008924  -0.030236  -0.000000
     8     H      -0.452151   0.023604  -0.000000
     9     O      -0.048684  -0.028686  -0.000000
    10     H       0.000988  -0.055072   0.000000
    11     H       0.765403   0.448348  -0.000000
    12     O       0.000464  -0.000197   0.000000
    13     H      -0.000212   0.000265  -0.000000
    14     H      -0.004866   0.004202   0.000000
 
 Mode:    39      Frequency (cm-1):     3059.5963     Intensity (km/mol):     4826.7477     Irrep: A'
 Index  Atom      ---- Displacements (x/y/z) ----
     1    Pa      -0.000267  -0.000129  -0.000000
     2     O       0.001225  -0.000596   0.000000
     3    Cl       0.001559  -0.000148   0.000000
     4    Cl       0.000116   0.000434   0.000000
     5    Cl       0.000022  -0.000004   0.000000
     6     O      -0.055617   0.003247  -0.000000
     7     H      -0.025602   0.056636  -0.000000
     8     H       0.883287  -0.071353   0.000000
     9     O      -0.024219  -0.013780  -0.000000
    10     H      -0.002024  -0.028310   0.000000
    11     H       0.387494   0.236355   0.000000
    12     O       0.000939  -0.000330   0.000000
    13     H       0.000765   0.000509  -0.000000
    14     H      -0.008992   0.007886  -0.000000
 
 Mode:    40      Frequency (cm-1):     3716.1923     Intensity (km/mol):      135.5198     Irrep: A'
 Index  Atom      ---- Displacements (x/y/z) ----
     1    Pa      -0.000051  -0.000012  -0.000000
     2     O      -0.000005   0.000219  -0.000000
     3    Cl      -0.000022  -0.000025   0.000000
     4    Cl       0.000073  -0.000099  -0.000000
     5    Cl      -0.000120   0.000093  -0.000000
     6     O       0.000260  -0.000507   0.000000
     7     H      -0.002344   0.008328   0.000000
     8     H      -0.001110   0.000149   0.000000
     9     O      -0.001736   0.014002  -0.000000
    10     H       0.039875  -0.221588  -0.000000
    11     H      -0.009642  -0.001204   0.000000
    12     O      -0.016813  -0.058148   0.000000
    13     H       0.299447   0.924731   0.000000
    14     H      -0.021826  -0.001381   0.000000
 
 Mode:    41      Frequency (cm-1):     3717.0037     Intensity (km/mol):      375.0554     Irrep: A'
 Index  Atom      ---- Displacements (x/y/z) ----
     1    Pa      -0.000033   0.000009  -0.000000
     2     O       0.000090  -0.000186   0.000000
     3    Cl      -0.000100  -0.000114   0.000000
     4    Cl       0.000056   0.000178   0.000000
     5    Cl       0.000031  -0.000023   0.000000
     6     O      -0.001296   0.003592   0.000000
     7     H       0.017417  -0.060562  -0.000000
     8     H       0.002609   0.001844  -0.000000
     9     O      -0.007791   0.060376   0.000000
    10     H       0.171429  -0.954351   0.000000
    11     H      -0.039003  -0.003224  -0.000000
    12     O       0.003925   0.013470  -0.000000
    13     H      -0.068869  -0.213605  -0.000000
    14     H       0.004964   0.000504   0.000000
 
 Mode:    42      Frequency (cm-1):     3721.4208     Intensity (km/mol):      258.4730     Irrep: A'
 Index  Atom      ---- Displacements (x/y/z) ----
     1    Pa      -0.000028  -0.000029  -0.000000
     2     O       0.000193  -0.000039   0.000000
     3    Cl      -0.000145   0.000054   0.000000
     4    Cl       0.000002   0.000066   0.000000
     5    Cl       0.000007  -0.000004  -0.000000
     6     O       0.020555  -0.059137  -0.000000
     7     H      -0.272394   0.956783   0.000000
     8     H      -0.046148  -0.016513   0.000000
     9     O      -0.000506   0.003821  -0.000000
    10     H       0.010643  -0.058213  -0.000000
    11     H      -0.002876  -0.001072  -0.000000
    12     O       0.000509   0.001328  -0.000000
    13     H      -0.006921  -0.021635   0.000000
    14     H      -0.000424   0.000847   0.000000

 Vibrational polarizability tensor (a.u.):
                  X                   Y                   Z
 X            4529.36283          1546.50459             0.00000
 Y            1546.50459          4518.58765            -0.00000
 Z               0.00000            -0.00000         16773.96385

 Isotropic =      8607.3    atomic units

PES point character: Geometry corresponds to a stationary point on the PES with >1 imaginary frequencies.




 ============================
 Statistical Thermal Analysis  ***  ideal gas assumed  ***
 ============================
  
 Pressure:                  1.000000 atm.
 Temperature:             298.150000 K



 Moments of Inertia [amu*bohr^2] and principal axis
 ==================================================

        1553.5024       6409.3036       7962.8060
 ------------------------------------------------
          -1.0000          0.0046          0.0000
          -0.0046         -1.0000          0.0000
           0.0000          0.0000          1.0000


 The rotational contribution to the molecular entropy includes
 a term, dependent on the symmetry number sigma. The results 
 reported below were computed using sigma = 1, determined from
 the point group symmetry of the input geometry (C(S)). 
 If this is not the correct symmetry, try symmetrizing the molecule before
 running the calculation (note: linear molecules should be aligned along one
 of the Cartesian axes).
 Contributions from frequencies below 20 1/cm are not included in vibrational sums.
 Their contributions, if any, are reported separately.


     Temp                                                        Transl      Rotat     Vibrat     Total
     ----                                                        ------      -----     ------     -----

     298.15   Entropy (cal/mol-K):                               43.895     32.739     39.809    116.443
              Nuclear Internal Energy (kcal/mol):                 0.889      0.889     53.347     55.124
              Constant Volume Heat Capacity (cal/mol-K):          2.981      2.981     34.269     40.231
          (c) Constant Volume Heat Capacity (cal/mol-K):          2.981      2.981     31.892     37.854

 Contributions from frequencies below 20 1/cm
 Frequency (1/cm):                                   17.120
 Entropy (cal/mol-K):                                 6.943
 Nuclear Internal Energy (kcal/mol):                  0.593
 Constant Volume Heat Capacity (cal/mol-K):           1.986

       Summary of energy terms
                                                   hartree              eV         kcal/mol           kJ/mol
                                      --------------------     -----------       ----------      -----------
      Energy from Engine:               -3.190300913611196        -86.8125         -2001.94         -8376.13
      Nuclear Internal Energy:           0.087845640887165          2.3904            55.12           230.64
  (c) Nuclear Internal Energy:           0.086583033236024          2.3560            54.33           227.32
      Internal Energy U:                -3.102455272724031        -84.4221         -1946.82         -8145.50
      pV/n = RT:                         0.000944186013486          0.0257             0.59             2.48
      Enthalpy H:                       -3.101511086710545        -84.3964         -1946.23         -8143.02
      -T*S:                             -0.055325665893808         -1.5055           -34.72          -145.26
  (c) -T*S:                             -0.055989755666154         -1.5236           -35.13          -147.00
      Gibbs free energy:                -3.156836752604353        -85.9019         -1980.95         -8288.27
 
 
 
  (c) The properties marked with this symbol have been corrected using 'low vibrational frequency free rotor
      interpolation corrections'. For those terms all positive frequencies are used (also ones below 20 1/cm),
      but the contribution to the partition function of small vibrational frequencies is modified as described
      in the following paper:
      S. Grimme, 'Supramolecular Binding Thermodynamics by Dispersion-Corrected Density Functional Theory'
      (Chem. Eur. J. 2012, 18, 9955-9964)
      Configuration: Dampener Frequency          :   100.000 1/cm
                     Dampener Alpha              :     4.000
                     Averaging Moment of Inertia : 1.000E-44 kg m2

--------------
Atomic charges
--------------
  Index   Atom    Charge
      1     Pa    2.4279
      2      O   -0.6609
      3     Cl   -0.7580
      4     Cl   -0.3948
      5     Cl   -0.8248
      6      O   -0.5025
      7      H    0.2630
      8      H    0.3105
      9      O   -0.4919
     10      H    0.2460
     11      H    0.3138
     12      O   -0.5349
     13      H    0.2740
     14      H    0.3326


Dipole moment vector    (Debye):     6.29549849   -6.75005590   -0.00000000
              magnitude (Debye):     9.23019804


-----------------------
Molecular orbitals info
-----------------------
n orbitals:              291
n spin:                    1

Note: only printing virtual orbitals with
      energy smaller than HOMO + 100. eV

HOMO (eV):              -7.4262
LUMO (eV):              -3.5454
HOMO-LUMO gap (eV):      3.8807

   Index   Energy (eV)    Occupation
     225       92.2619         0.000       
     224       86.8033         0.000       
     223       85.8493         0.000       
     222       82.3161         0.000       
     221       79.5965         0.000       
     220       74.4960         0.000       
     219       72.3469         0.000       
     218       72.2696         0.000       
     217       71.4473         0.000       
     216       69.8306         0.000       
     215       68.3619         0.000       
     214       66.5752         0.000       
     213       64.6336         0.000       
     212       61.8145         0.000       
     211       58.2994         0.000       
     210       57.1674         0.000       
     209       55.0467         0.000       
     208       53.4505         0.000       
     207       53.0696         0.000       
     206       52.4380         0.000       
     205       51.5050         0.000       
     204       51.3596         0.000       
     203       49.7302         0.000       
     202       49.4725         0.000       
     201       49.3241         0.000       
     200       48.7074         0.000       
     199       47.1703         0.000       
     198       47.0739         0.000       
     197       46.5333         0.000       
     196       46.1133         0.000       
     195       45.6871         0.000       
     194       44.6336         0.000       
     193       43.1733         0.000       
     192       43.1661         0.000       
     191       42.5399         0.000       
     190       41.5506         0.000       
     189       40.7159         0.000       
     188       40.0842         0.000       
     187       40.0136         0.000       
     186       38.4172         0.000       
     185       37.6485         0.000       
     184       37.2199         0.000       
     183       34.9167         0.000       
     182       33.9813         0.000       
     181       33.6775         0.000       
     180       32.8871         0.000       
     179       32.0513         0.000       
     178       31.3682         0.000       
     177       29.9555         0.000       
     176       29.5951         0.000       
     175       28.0092         0.000       
     174       27.4460         0.000       
     173       26.4228         0.000       
     172       25.5384         0.000       
     171       25.2416         0.000       
     170       24.7975         0.000       
     169       23.5401         0.000       
     168       23.3350         0.000       
     167       22.8439         0.000       
     166       22.0120         0.000       
     165       21.6621         0.000       
     164       20.9138         0.000       
     163       20.8210         0.000       
     162       20.2557         0.000       
     161       20.0911         0.000       
     160       19.5862         0.000       
     159       19.2911         0.000       
     158       18.8083         0.000       
     157       18.5744         0.000       
     156       18.3029         0.000       
     155       18.0053         0.000       
     154       17.5874         0.000       
     153       17.4083         0.000       
     152       16.5436         0.000       
     151       16.4650         0.000       
     150       16.3034         0.000       
     149       16.2342         0.000       
     148       15.8671         0.000       
     147       15.5006         0.000       
     146       15.3571         0.000       
     145       14.7365         0.000       
     144       14.6682         0.000       
     143       14.4117         0.000       
     142       14.4013         0.000       
     141       14.3626         0.000       
     140       14.1740         0.000       
     139       13.9673         0.000       
     138       13.9650         0.000       
     137       13.7672         0.000       
     136       13.4377         0.000       
     135       13.4066         0.000       
     134       13.3642         0.000       
     133       13.1946         0.000       
     132       12.8138         0.000       
     131       12.4533         0.000       
     130       12.4489         0.000       
     129       12.2111         0.000       
     128       12.0654         0.000       
     127       11.3795         0.000       
     126       11.1857         0.000       
     125       11.0985         0.000       
     124       10.1035         0.000       
     123        9.9972         0.000       
     122        9.8448         0.000       
     121        9.7775         0.000       
     120        8.5513         0.000       
     119        8.1635         0.000       
     118        7.0775         0.000       
     117        6.0086         0.000       
     116        5.6233         0.000       
     115        5.3630         0.000       
     114        5.1923         0.000       
     113        4.8761         0.000       
     112        4.6773         0.000       
     111        3.3258         0.000       
     110        2.8445         0.000       
     109        2.6802         0.000       
     108        2.6113         0.000       
     107        2.5866         0.000       
     106        2.3154         0.000       
     105        2.2695         0.000       
     104        1.9166         0.000       
     103        1.4554         0.000       
     102        1.3526         0.000       
     101        0.6913         0.000       
     100        0.1049         0.000       
      99       -1.0383         0.000       
      98       -1.7318         0.000       
      97       -2.4720         0.000       
      96       -2.9139         0.000       
      95       -3.1190         0.000       
      94       -3.4593         0.000       
      93       -3.4944         0.000       
      92       -3.5118         0.000       
      91       -3.5454         0.000 < LUMO
      90       -7.4262         2.000 < HOMO
      89       -7.4270         2.000       
      88       -7.6681         2.000       
      87       -7.6881         2.000       
      86       -7.8324         2.000       
      85       -7.9992         2.000       
      84       -8.9575         2.000       
      83       -9.0034         2.000       
      82       -9.0418         2.000       
      81      -10.0265         2.000       
      80      -10.3058         2.000       
      79      -10.3207         2.000       
      78      -10.5164         2.000       
      77      -10.6374         2.000       
      76      -10.6894         2.000       
      75      -12.5145         2.000       
      74      -13.0157         2.000       
      73      -13.6973         2.000       
      72      -15.5028         2.000       
      71      -15.7164         2.000       
      70      -16.3021         2.000       
      69      -20.1439         2.000       
      68      -20.5553         2.000       
      67      -21.0268         2.000       
      66      -22.6075         2.000       
      65      -26.0562         2.000       
      64      -26.2184         2.000       
      63      -28.7953         2.000       
      62      -28.9962         2.000       
      61      -29.4401         2.000       
      60      -30.5606         2.000       
      59      -51.1099         2.000       
      58     -100.6337         2.000       
      57     -100.6891         2.000       
      56     -100.7441         2.000       
      55     -100.9304         2.000       
      54     -100.9351         2.000       
      53     -194.0998         2.000       
      52     -194.1000         2.000       
      51     -194.1376         2.000       
      50     -194.4223         2.000       
      49     -194.4443         2.000       
      48     -194.4627         2.000       
      47     -195.8070         2.000       
      46     -195.8192         2.000       
      45     -195.8718         2.000       
      44     -207.0388         2.000       
      43     -207.4527         2.000       
      42     -207.5149         2.000       
      41     -256.9087         2.000       
      40     -257.2411         2.000       
      39     -258.6363         2.000       
      38     -305.5775         2.000       
      37     -360.6488         2.000       
      36     -360.6917         2.000       
      35     -360.7175         2.000       
      34     -360.8848         2.000       
      33     -360.8859         2.000       
      32     -361.1027         2.000       
      31     -361.1051         2.000       
      30     -522.3825         2.000       
      29     -523.0419         2.000       
      28     -523.0533         2.000       
      27     -523.0793         2.000       
      26     -711.3039         2.000       
      25     -711.4592         2.000       
      24     -711.4966         2.000       
      23     -711.7700         2.000       
      22     -711.7799         2.000       
      21    -1038.5359         2.000       
      20    -1038.9742         2.000       
      19    -1039.0221         2.000       
      18    -1356.2269         2.000       
      17    -2770.1246         2.000       
      16    -2770.4435         2.000       
      15    -2771.8052         2.000       
      14    -3480.9845         2.000       
      13    -3481.0486         2.000       
      12    -3481.0612         2.000       
      11    -3481.1908         2.000       
      10    -3481.1946         2.000       
       9    -4341.6773         2.000       
       8    -4341.9258         2.000       
       7    -4341.9466         2.000       
       6    -5311.1455         2.000       
       5   -17550.4160         2.000       
       4   -17550.4575         2.000       
       3   -17550.4595         2.000       
       2   -21022.2436         2.000       
       1  -112662.8757         2.000       

PES point character cannot be identified reliably because some modes have a significant rigid character.


AMS application finished. Exiting.
NORMAL TERMINATION
     Total cpu time:   73965.97
  Total system time:    4271.18
 Total elapsed time:   78274.24
